! TOUCHSTONE file generated by CST MICROWAVE STUDIO
! Date and time: Tue Jan 14 11:28:40 2020
! Project name: Cloverleaf_Modified_Ground_30.cst
! Parameters = {A=0.0005; Dgp=0.033; Lgp=0.1; Lhorn=0.03; Lmax=0.015; Lmin=0.001; b=90.2683; dLhorn=1000}
! Header version: 2015
! Port assignment regex: !\s*Touchstone port\s*([0-9]+)\s*=\s*CST MWS port\s*([0-9]+)\s*\(\"(.*)\"\)(\s*mode\s*([0-9]+))?.*
! Touchstone port assignment:
! Touchstone port 1 = CST MWS port 1 ("")
! Touchstone port 2 = CST MWS port 2 ("")
# Hz S MA R 100
1.5e+009                0.638602         142.844        0.0100898         21.7142        0.0100902         21.7154         0.650477          144.87
1.5015e+009             0.636955         142.413         0.010068         20.7884        0.0100684         20.7896         0.648913         144.425
1.503e+009              0.635313         141.984        0.0100457         19.8651        0.0100461         19.8664         0.647352         143.982
1.5045e+009             0.633677         141.555         0.010023         18.9444        0.0100234         18.9457         0.645794          143.54
1.506e+009              0.632047         141.128       0.00999998         18.0263        0.0100003         18.0276         0.644238         143.099
1.5075e+009             0.630423         140.702       0.00997658         17.1108       0.00997692         17.1121         0.642686         142.659
1.509e+009              0.628804         140.277       0.00995282         16.1978       0.00995315         16.1991         0.641137          142.22
1.5105e+009             0.627192         139.854       0.00992873         15.2874       0.00992904         15.2887         0.639591         141.782
1.512e+009              0.625586         139.432        0.0099043         14.3796        0.0099046         14.3809         0.638049         141.345
1.5135e+009             0.623986         139.011       0.00987955         13.4743       0.00987984         13.4757          0.63651         140.909
1.515e+009              0.622393         138.591        0.0098545         12.5717       0.00985477          12.573         0.634975         140.475
1.5165e+009             0.620806         138.172       0.00982914         11.6716        0.0098294         11.6729         0.633444         140.041
1.518e+009              0.619226         137.755       0.00980351          10.774       0.00980375         10.7753         0.631917         139.609
1.5195e+009             0.617652         137.339       0.00977759         9.87901       0.00977782         9.88026         0.630393         139.177
1.521e+009              0.616085         136.924       0.00975141         8.98657       0.00975163          8.9878         0.628874         138.747
1.5225e+009             0.614525         136.511       0.00972497         8.09668       0.00972518         8.09787         0.627359         138.318
1.524e+009              0.612972         136.099       0.00969829         7.20933       0.00969848         7.21049         0.625849         137.891
1.5255e+009             0.611426         135.688       0.00967136         6.32451       0.00967155         6.32563         0.624342         137.464
1.527e+009              0.609887         135.278       0.00964421         5.44222       0.00964438          5.4433         0.622841         137.038
1.5285e+009             0.608356         134.869       0.00961684         4.56245         0.009617         4.56349         0.621344         136.614
1.53e+009               0.606831         134.462       0.00958926         3.68519       0.00958941         3.68619         0.619851         136.191
1.5315e+009             0.605314         134.056       0.00956148         2.81044       0.00956161         2.81139         0.618364         135.769
1.533e+009              0.603804         133.652        0.0095335         1.93818       0.00953362         1.93909         0.616881         135.348
1.5345e+009             0.602302         133.248       0.00950534         1.06841       0.00950545         1.06927         0.615403         134.929
1.536e+009              0.600807         132.846         0.009477        0.201124       0.00947709        0.201932          0.61393          134.51
1.5375e+009              0.59932         132.445       0.00944849       -0.663696       0.00944857       -0.662939         0.612463         134.093
1.539e+009               0.59784         132.046       0.00941981        -1.52606       0.00941989        -1.52535            0.611         133.677
1.5405e+009             0.596368         131.648       0.00939098        -2.38596       0.00939105        -2.38531         0.609543         133.262
1.542e+009              0.594904         131.251       0.00936201        -3.24343       0.00936206        -3.24283         0.608091         132.849
1.5435e+009             0.593448         130.855       0.00933289        -4.09847       0.00933294        -4.09792         0.606645         132.436
1.545e+009              0.591999         130.461       0.00930364        -4.95108       0.00930367        -4.95059         0.605204         132.025
1.5465e+009             0.590558         130.068       0.00927426        -5.80128       0.00927429        -5.80084         0.603768         131.616
1.548e+009              0.589125         129.676       0.00924476        -6.64908       0.00924478        -6.64869         0.602338         131.207
1.5495e+009             0.587701         129.285       0.00921515        -7.49449       0.00921515        -7.49416         0.600914           130.8
1.551e+009              0.586284         128.896       0.00918543        -8.33752       0.00918542        -8.33724         0.599496         130.393
1.5525e+009             0.584875         128.508        0.0091556        -9.17817       0.00915559        -9.17794         0.598083         129.989
1.554e+009              0.583474         128.121       0.00912568        -10.0165       0.00912566        -10.0163         0.596677         129.585
1.5555e+009             0.582081         127.736       0.00909567        -10.8524       0.00909564        -10.8523         0.595276         129.183
1.557e+009              0.580697         127.352       0.00906558         -11.686       0.00906554        -11.6859         0.593881         128.781
1.5585e+009              0.57932         126.969        0.0090354        -12.5173       0.00903536        -12.5173         0.592492         128.382
1.56e+009               0.577952         126.587       0.00900515        -13.3462        0.0090051        -13.3463         0.591109         127.983
1.5615e+009             0.576591         126.207       0.00897483        -14.1729       0.00897477         -14.173         0.589733         127.586
1.563e+009              0.575239         125.828       0.00894445        -14.9972       0.00894438        -14.9974         0.588362          127.19
1.5645e+009             0.573896         125.451       0.00891401        -15.8193       0.00891393        -15.8195         0.586998         126.795
1.566e+009               0.57256         125.074       0.00888351        -16.6391       0.00888343        -16.6393          0.58564         126.401
1.5675e+009             0.571233         124.699       0.00885296        -17.4566       0.00885288        -17.4569         0.584288         126.009
1.569e+009              0.569913         124.325       0.00882237        -18.2719       0.00882228        -18.2722         0.582943         125.618
1.5705e+009             0.568603         123.953       0.00879174        -19.0849       0.00879164        -19.0852         0.581604         125.229
1.572e+009                0.5673         123.581       0.00876107        -19.8957       0.00876097        -19.8961         0.580271          124.84
1.5735e+009             0.566006         123.211       0.00873037        -20.7042       0.00873026        -20.7047         0.578945         124.453
1.575e+009               0.56472         122.843       0.00869964        -21.5105       0.00869953         -21.511         0.577625         124.068
1.5765e+009             0.563442         122.475       0.00866889        -22.3147       0.00866877        -22.3152         0.576312         123.683
1.578e+009              0.562172         122.109       0.00863812        -23.1166         0.008638        -23.1172         0.575005           123.3
1.5795e+009             0.560911         121.744       0.00860733        -23.9164        0.0086072         -23.917         0.573705         122.918
1.581e+009              0.559658         121.381       0.00857653        -24.7139        0.0085764        -24.7146         0.572412         122.537
1.5825e+009             0.558413         121.018       0.00854571        -25.5093       0.00854558          -25.51         0.571125         122.158
1.584e+009              0.557177         120.657        0.0085149        -26.3026       0.00851477        -26.3033         0.569844          121.78
1.5855e+009             0.555948         120.297       0.00848408        -27.0937       0.00848394        -27.0945         0.568571         121.403
1.587e+009              0.554728         119.939       0.00845326        -27.8827       0.00845312        -27.8835         0.567304         121.028
1.5885e+009             0.553517         119.582       0.00842245        -28.6695       0.00842231        -28.6703         0.566043         120.654
1.59e+009               0.552313         119.226       0.00839164        -29.4543        0.0083915        -29.4551          0.56479         120.281
1.5915e+009             0.551118         118.871       0.00836085        -30.2369       0.00836071        -30.2378         0.563543         119.909
1.593e+009               0.54993         118.517       0.00833006        -31.0174       0.00832992        -31.0183         0.562303         119.539
1.5945e+009             0.548751         118.165        0.0082993        -31.7958       0.00829916        -31.7968         0.561069          119.17
1.596e+009               0.54758         117.814       0.00826855        -32.5722       0.00826841        -32.5732         0.559843         118.803
1.5975e+009             0.546418         117.464       0.00823783        -33.3465       0.00823769        -33.3475         0.558623         118.436
1.599e+009              0.545263         117.116       0.00820713        -34.1187       0.00820699        -34.1197          0.55741         118.071
1.6005e+009             0.544117         116.768       0.00817646        -34.8889       0.00817632        -34.8899         0.556203         117.708
1.602e+009              0.542978         116.422       0.00814582        -35.6571       0.00814568        -35.6581         0.555004         117.345
1.6035e+009             0.541848         116.078       0.00811521        -36.4232       0.00811508        -36.4242         0.553811         116.984
1.605e+009              0.540725         115.734       0.00808464        -37.1872        0.0080845        -37.1883         0.552625         116.624
1.6065e+009             0.539611         115.392        0.0080541        -37.9493       0.00805397        -37.9504         0.551446         116.266
1.608e+009              0.538505         115.051        0.0080236        -38.7094       0.00802348        -38.7105         0.550274         115.909
1.6095e+009             0.537406         114.711       0.00799315        -39.4675       0.00799303        -39.4686         0.549108         115.553
1.611e+009              0.536316         114.372       0.00796274        -40.2235       0.00796262        -40.2247         0.547949         115.198
1.6125e+009             0.535233         114.035       0.00793237        -40.9776       0.00793226        -40.9788         0.546797         114.845
1.614e+009              0.534158         113.699       0.00790206        -41.7298       0.00790195        -41.7309         0.545652         114.493
1.6155e+009             0.533091         113.364       0.00787179          -42.48       0.00787169        -42.4811         0.544514         114.142
1.617e+009              0.532032          113.03       0.00784158        -43.2282       0.00784148        -43.2294         0.543382         113.793
1.6185e+009             0.530981         112.697       0.00781142        -43.9745       0.00781132        -43.9757         0.542258         113.445
1.62e+009               0.529937         112.366       0.00778132        -44.7188       0.00778123          -44.72          0.54114         113.098
1.6215e+009             0.528901         112.036       0.00775127        -45.4612       0.00775119        -45.4624         0.540028         112.752
1.623e+009              0.527873         111.707       0.00772129        -46.2017       0.00772121        -46.2029         0.538924         112.408
1.6245e+009             0.526852         111.379       0.00769137        -46.9403       0.00769129        -46.9415         0.537826         112.065
1.626e+009              0.525839         111.053        0.0076615         -47.677       0.00766143        -47.6782         0.536735         111.723
1.6275e+009             0.524833         110.728       0.00763171        -48.4118       0.00763164         -48.413         0.535651         111.383
1.629e+009              0.523835         110.403       0.00760198        -49.1447       0.00760192         -49.146         0.534573         111.044
1.6305e+009             0.522845          110.08       0.00757232        -49.8757       0.00757227         -49.877         0.533503         110.706
1.632e+009              0.521862         109.759       0.00754272        -50.6049       0.00754268        -50.6062         0.532438          110.37
1.6335e+009             0.520886         109.438        0.0075132        -51.3322       0.00751316        -51.3335         0.531381         110.034
1.635e+009              0.519918         109.119       0.00748375        -52.0577       0.00748372        -52.0589          0.53033           109.7
1.6365e+009             0.518957         108.801       0.00745437        -52.7813       0.00745435        -52.7826         0.529286         109.368
1.638e+009              0.518003         108.483       0.00742507        -53.5031       0.00742506        -53.5044         0.528248         109.036
1.6395e+009             0.517057         108.168       0.00739585         -54.223       0.00739584        -54.2243         0.527217         108.706
1.641e+009              0.516117         107.853        0.0073667        -54.9412        0.0073667        -54.9424         0.526193         108.377
1.6425e+009             0.515185         107.539       0.00733763        -55.6575       0.00733764        -55.6588         0.525175          108.05
1.644e+009               0.51426         107.227       0.00730864         -56.372       0.00730865        -56.3733         0.524164         107.723
1.6455e+009             0.513342         106.916       0.00727973        -57.0847       0.00727975         -57.086         0.523159         107.398
1.647e+009              0.512432         106.606        0.0072509        -57.7957       0.00725093         -57.797         0.522161         107.074
1.6485e+009             0.511528         106.297       0.00722215        -58.5048        0.0072222        -58.5061         0.521169         106.752
1.65e+009               0.510631         105.989       0.00719349        -59.2122       0.00719354        -59.2135         0.520183          106.43
1.6515e+009             0.509741         105.682       0.00716491        -59.9179       0.00716498        -59.9192         0.519204          106.11
1.653e+009              0.508858         105.377       0.00713642        -60.6217       0.00713649         -60.623         0.518232         105.791
1.6545e+009             0.507981         105.072       0.00710802        -61.3239        0.0071081        -61.3252         0.517266         105.474
1.656e+009              0.507112         104.769        0.0070797        -62.0243       0.00707979        -62.0256         0.516306         105.158
1.6575e+009             0.506249         104.467       0.00705147        -62.7229       0.00705157        -62.7242         0.515353         104.842
1.659e+009              0.505393         104.166       0.00702333        -63.4199       0.00702344        -63.4212         0.514405         104.529
1.6605e+009             0.504543         103.866       0.00699528        -64.1151        0.0069954        -64.1164         0.513465         104.216
1.662e+009              0.503701         103.567       0.00696732        -64.8086       0.00696745        -64.8099          0.51253         103.905
1.6635e+009             0.502864          103.27       0.00693946        -65.5004        0.0069396        -65.5017         0.511602         103.594
1.665e+009              0.502034         102.973       0.00691168        -66.1905       0.00691183        -66.1918          0.51068         103.285
1.6665e+009             0.501211         102.678         0.006884         -66.879       0.00688416        -66.8803         0.509764         102.978
1.668e+009              0.500394         102.384       0.00685641        -67.5657       0.00685658         -67.567         0.508854         102.671
1.6695e+009             0.499583          102.09       0.00682892        -68.2508        0.0068291        -68.2521          0.50795         102.366
1.671e+009              0.498779         101.798       0.00680152        -68.9343       0.00680171        -68.9356         0.507052         102.062
1.6725e+009             0.497981         101.507       0.00677422         -69.616       0.00677441        -69.6174         0.506161         101.759
1.674e+009              0.497189         101.217       0.00674701        -70.2962       0.00674722        -70.2975         0.505275         101.457
1.6755e+009             0.496404         100.928        0.0067199        -70.9747       0.00672012         -70.976         0.504396         101.157
1.677e+009              0.495624         100.641       0.00669288        -71.6515       0.00669311        -71.6529         0.503522         100.858
1.6785e+009             0.494851         100.354       0.00666596        -72.3268        0.0066662        -72.3281         0.502654          100.56
1.68e+009               0.494083         100.068       0.00663915        -73.0004       0.00663939        -73.0017         0.501793         100.263
1.6815e+009             0.493322         99.7837       0.00661242        -73.6724       0.00661268        -73.6738         0.500937         99.9671
1.683e+009              0.492566         99.5002        0.0065858        -74.3428       0.00658607        -74.3442         0.500087         99.6726
1.6845e+009             0.491817         99.2178       0.00655928        -75.0117       0.00655956         -75.013         0.499243         99.3793
1.686e+009              0.491073         98.9364       0.00653285        -75.6789       0.00653314        -75.6803         0.498404         99.0872
1.6875e+009             0.490335         98.6561       0.00650653        -76.3446       0.00650683        -76.3459         0.497572         98.7963
1.689e+009              0.489603         98.3768        0.0064803        -77.0087       0.00648061          -77.01         0.496745         98.5065
1.6905e+009             0.488877         98.0986       0.00645418        -77.6712        0.0064545        -77.6726         0.495923         98.2179
1.692e+009              0.488156         97.8215       0.00642816        -78.3322       0.00642848        -78.3335         0.495108         97.9305
1.6935e+009             0.487441         97.5453       0.00640223        -78.9916       0.00640257         -78.993         0.494298         97.6442
1.695e+009              0.486731         97.2703       0.00637641        -79.6495       0.00637676        -79.6509         0.493493         97.3591
1.6965e+009             0.486027         96.9962       0.00635069        -80.3058       0.00635105        -80.3072         0.492694         97.0751
1.698e+009              0.485328         96.7232       0.00632507        -80.9607       0.00632544        -80.9621         0.491901         96.7923
1.6995e+009             0.484635         96.4512       0.00629956         -81.614       0.00629993        -81.6154         0.491113         96.5107
1.7e+009                0.484405         96.3607       0.00629107        -81.8314       0.00629145        -81.8328         0.490852          96.417
1.701e+009              0.483947         96.1802       0.00627414        -82.2658       0.00627452        -82.2672         0.490331         96.2302
1.7025e+009             0.483265         95.9102       0.00624883        -82.9161       0.00624922        -82.9175         0.489554         95.9508
1.704e+009              0.482588         95.6413       0.00622362        -83.5649       0.00622402        -83.5663         0.488782         95.6725
1.7055e+009             0.481916         95.3734       0.00619851        -84.2122       0.00619892        -84.2137         0.488016         95.3954
1.707e+009              0.481249         95.1064        0.0061735         -84.858       0.00617392        -84.8595         0.487255         95.1195
1.7085e+009             0.480587         94.8405        0.0061486        -85.5024       0.00614902        -85.5039         0.486499         94.8446
1.71e+009               0.479931         94.5756       0.00612379        -86.1453       0.00612423        -86.1468         0.485749         94.5709
1.7115e+009             0.479279         94.3117       0.00609909        -86.7867       0.00609954        -86.7882         0.485004         94.2983
1.713e+009              0.478633         94.0487        0.0060745        -87.4267       0.00607495        -87.4282         0.484264         94.0268
1.7145e+009             0.477992         93.7868          0.00605        -88.0652       0.00605046        -88.0668         0.483529         93.7564
1.716e+009              0.477355         93.5259       0.00602561        -88.7024       0.00602608        -88.7039         0.482799         93.4871
1.7175e+009             0.476723         93.2659       0.00600132         -89.338        0.0060018        -89.3396         0.482074         93.2189
1.719e+009              0.476097         93.0069       0.00597713        -89.9723       0.00597762        -89.9738         0.481354         92.9518
1.7205e+009             0.475475         92.7489       0.00595305        -90.6051       0.00595354        -90.6067          0.48064         92.6858
1.722e+009              0.474857         92.4918       0.00592907        -91.2365       0.00592957        -91.2381          0.47993         92.4209
1.7235e+009             0.474245         92.2357       0.00590519        -91.8666        0.0059057        -91.8682         0.479225          92.157
1.725e+009              0.473637         91.9806       0.00588141        -92.4952       0.00588193        -92.4968         0.478525         91.8943
1.7265e+009             0.473033         91.7265       0.00585773        -93.1224       0.00585826        -93.1241          0.47783         91.6326
1.728e+009              0.472435         91.4733       0.00583416        -93.7483       0.00583469        -93.7499          0.47714          91.372
1.7295e+009              0.47184          91.221       0.00581069        -94.3728       0.00581123        -94.3744         0.476454         91.1125
1.731e+009               0.47125         90.9697       0.00578732        -94.9959       0.00578786        -94.9976         0.475774          90.854
1.7325e+009             0.470665         90.7194       0.00576405        -95.6177        0.0057646        -95.6194         0.475098         90.5966
1.734e+009              0.470084         90.4699       0.00574089        -96.2381       0.00574144        -96.2398         0.474426         90.3403
1.7355e+009             0.469508         90.2215       0.00571782        -96.8571       0.00571838        -96.8589          0.47376          90.085
1.737e+009              0.468935         89.9739       0.00569486        -97.4749       0.00569543        -97.4766         0.473098         89.8307
1.7385e+009             0.468367         89.7273       0.00567199        -98.0913       0.00567257         -98.093          0.47244         89.5775
1.74e+009               0.467803         89.4816       0.00564923        -98.7063       0.00564981        -98.7081         0.471787         89.3254
1.7415e+009             0.467244         89.2369       0.00562657        -99.3201       0.00562716        -99.3219         0.471139         89.0742
1.743e+009              0.466688         88.9931       0.00560401        -99.9325        0.0056046        -99.9343         0.470495         88.8242
1.7445e+009             0.466137         88.7501       0.00558155        -100.544       0.00558215        -100.545         0.469856         88.5751
1.746e+009              0.465589         88.5081       0.00555919        -101.154       0.00555979        -101.155          0.46922          88.327
1.7475e+009             0.465046          88.267       0.00553693        -101.762       0.00553754        -101.764          0.46859           88.08
1.749e+009              0.464507         88.0268       0.00551477        -102.369       0.00551538        -102.371         0.467963          87.834
1.7505e+009             0.463971         87.7876       0.00549271        -102.975       0.00549332        -102.977         0.467341          87.589
1.752e+009               0.46344         87.5492       0.00547074         -103.58       0.00547136        -103.582         0.466723          87.345
1.7535e+009             0.462912         87.3117       0.00544888        -104.183        0.0054495        -104.185          0.46611          87.102
1.755e+009              0.462388         87.0751       0.00542711        -104.786       0.00542774        -104.788         0.465501           86.86
1.7565e+009             0.461868         86.8394       0.00540544        -105.387       0.00540608        -105.389         0.464895          86.619
1.758e+009              0.461351         86.6046       0.00538388        -105.986       0.00538451        -105.988         0.464294          86.379
1.7595e+009             0.460838         86.3706        0.0053624        -106.585       0.00536305        -106.587         0.463697           86.14
1.761e+009              0.460329         86.1376       0.00534103        -107.182       0.00534167        -107.184         0.463104          85.902
1.7625e+009             0.459824         85.9054       0.00531975        -107.778        0.0053204         -107.78         0.462515         85.6649
1.764e+009              0.459322         85.6741       0.00529857        -108.373       0.00529922        -108.375          0.46193         85.4288
1.7655e+009             0.458824         85.4436       0.00527749        -108.966       0.00527814        -108.969          0.46135         85.1937
1.767e+009              0.458329          85.214        0.0052565        -109.559       0.00525716        -109.561         0.460772         84.9596
1.7685e+009             0.457837         84.9853       0.00523561         -110.15       0.00523627        -110.152         0.460199         84.7264
1.77e+009               0.457349         84.7575       0.00521481         -110.74       0.00521547        -110.742          0.45963         84.4942
1.7715e+009             0.456864         84.5304       0.00519411        -111.329       0.00519477        -111.331         0.459065         84.2629
1.773e+009              0.456383         84.3043        0.0051735        -111.916       0.00517417        -111.919         0.458503         84.0326
1.7745e+009             0.455905          84.079       0.00515299        -112.503       0.00515366        -112.505         0.457945         83.8032
1.776e+009               0.45543         83.8545       0.00513257        -113.088       0.00513324         -113.09         0.457391         83.5747
1.7775e+009             0.454959         83.6309       0.00511224        -113.672       0.00511292        -113.675          0.45684         83.3472
1.779e+009              0.454491         83.4081       0.00509201        -114.255       0.00509269        -114.258         0.456294         83.1207
1.7805e+009             0.454025         83.1862       0.00507187        -114.837       0.00507255        -114.839          0.45575          82.895
1.782e+009              0.453563         82.9651       0.00505183        -115.418        0.0050525         -115.42         0.455211         82.6703
1.7835e+009             0.453104         82.7448       0.00503187        -115.997       0.00503255            -116         0.454675         82.4465
1.785e+009              0.452648         82.5253       0.00501201        -116.576       0.00501269        -116.578         0.454142         82.2236
1.7865e+009             0.452196         82.3067       0.00499224        -117.153       0.00499292        -117.155         0.453613         82.0017
1.788e+009              0.451746         82.0889       0.00497256        -117.729       0.00497324        -117.731         0.453088         81.7806
1.7895e+009             0.451299         81.8719       0.00495297        -118.304       0.00495365        -118.307         0.452566         81.5605
1.791e+009              0.450855         81.6557       0.00493348        -118.878       0.00493415        -118.881         0.452047         81.3412
1.7925e+009             0.450413         81.4403       0.00491407        -119.451       0.00491475        -119.453         0.451532         81.1229
1.794e+009              0.449975         81.2257       0.00489475        -120.023       0.00489543        -120.025          0.45102         80.9054
1.7955e+009              0.44954          81.012       0.00487552        -120.593        0.0048762        -120.596         0.450511         80.6888