! TOUCHSTONE file generated by CST MICROWAVE STUDIO
! Date and time: Tue Jan 14 09:22:22 2020
! Project name: Cloverleaf_Modified_Ground_10.cst
! Parameters = {A=0.0005; Dgp=0.033; Lgp=0.1; Lhorn=0.03; Lmax=0.015; Lmin=0.001; b=90.2683; dLhorn=1000}
! Header version: 2015
! Port assignment regex: !\s*Touchstone port\s*([0-9]+)\s*=\s*CST MWS port\s*([0-9]+)\s*\(\"(.*)\"\)(\s*mode\s*([0-9]+))?.*
! Touchstone port assignment:
! Touchstone port 1 = CST MWS port 1 ("")
! Touchstone port 2 = CST MWS port 2 ("")
# Hz S MA R 100
1.5e+009                 0.56835         147.759       0.00123817        -31.5489       0.00123954        -31.5973         0.565991         147.807
1.5015e+009             0.567325         147.362       0.00123135        -32.1228       0.00123268        -32.1727         0.564949         147.412
1.503e+009              0.566305         146.966        0.0012245        -32.6932        0.0012258        -32.7443         0.563911         147.018
1.5045e+009             0.565289          146.57       0.00121761          -33.26       0.00121887        -33.3123         0.562878         146.624
1.506e+009              0.564278         146.175       0.00121069        -33.8233       0.00121192        -33.8767          0.56185         146.231
1.5075e+009             0.563271          145.78       0.00120375        -34.3831       0.00120494        -34.4374         0.560826         145.838
1.509e+009              0.562268         145.385       0.00119678        -34.9394       0.00119793        -34.9945         0.559807         145.445
1.5105e+009             0.561269         144.991       0.00118978        -35.4921       0.00119089         -35.548         0.558792         145.053
1.512e+009              0.560275         144.597       0.00118276        -36.0414       0.00118383        -36.0978         0.557783         144.661
1.5135e+009             0.559285         144.204       0.00117572        -36.5873       0.00117675        -36.6441         0.556777          144.27
1.515e+009                0.5583         143.811       0.00116865        -37.1296       0.00116965        -37.1868         0.555777         143.879
1.5165e+009             0.557318         143.419       0.00116157        -37.6685       0.00116253        -37.7259         0.554781         143.489
1.518e+009              0.556341         143.027       0.00115448         -38.204       0.00115539        -38.2615          0.55379         143.099
1.5195e+009             0.555369         142.636       0.00114736        -38.7361       0.00114824        -38.7936         0.552803          142.71
1.521e+009              0.554401         142.245       0.00114024        -39.2647       0.00114108        -39.3221         0.551821         142.321
1.5225e+009             0.553437         141.854        0.0011331          -39.79        0.0011339        -39.8471         0.550844         141.932
1.524e+009              0.552477         141.464       0.00112594        -40.3119       0.00112671        -40.3687         0.549872         141.545
1.5255e+009             0.551522         141.074       0.00111878        -40.8304       0.00111951        -40.8868         0.548904         141.157
1.527e+009              0.550571         140.685       0.00111161        -41.3455        0.0011123        -41.4014         0.547941          140.77
1.5285e+009             0.549625         140.297       0.00110443        -41.8573       0.00110509        -41.9125         0.546983         140.384
1.53e+009               0.548683         139.909       0.00109725        -42.3657       0.00109787        -42.4203         0.546029         139.998
1.5315e+009             0.547745         139.521       0.00109006        -42.8708       0.00109064        -42.9246          0.54508         139.613
1.533e+009              0.546811         139.134       0.00108286        -43.3726       0.00108341        -43.4255         0.544136         139.228
1.5345e+009             0.545882         138.748       0.00107566        -43.8711       0.00107618         -43.923         0.543196         138.843
1.536e+009              0.544957         138.362       0.00106846        -44.3662       0.00106895        -44.4171         0.542261          138.46
1.5375e+009             0.544037         137.977       0.00106126        -44.8581       0.00106171        -44.9078         0.541331         138.076
1.539e+009              0.543121         137.592       0.00105405        -45.3467       0.00105448        -45.3952         0.540406         137.694
1.5405e+009             0.542209         137.208       0.00104684        -45.8319       0.00104724        -45.8792         0.539485         137.312
1.542e+009              0.541302         136.824       0.00103964        -46.3139       0.00104001        -46.3599         0.538569          136.93
1.5435e+009             0.540398         136.441       0.00103243        -46.7926       0.00103278        -46.8372         0.537657         136.549
1.545e+009                0.5395         136.059       0.00102523        -47.2681       0.00102555        -47.3112          0.53675         136.169
1.5465e+009             0.538605         135.677       0.00101803        -47.7402       0.00101833        -47.7818         0.535848         135.789
1.548e+009              0.537715         135.295       0.00101084        -48.2091       0.00101111        -48.2491         0.534951          135.41
1.5495e+009             0.536829         134.915       0.00100364        -48.6747       0.00100389        -48.7131         0.534058         135.031
1.551e+009              0.535947         134.534      0.000996457        -49.1369      0.000996687        -49.1738          0.53317         134.653
1.5525e+009              0.53507         134.155      0.000989275         -49.596      0.000989486        -49.6311         0.532286         134.276
1.554e+009              0.534196         133.776      0.000982099        -50.0517      0.000982292        -50.0851         0.531407         133.899
1.5555e+009             0.533328         133.398      0.000974929        -50.5041      0.000975106        -50.5358         0.530533         133.523
1.557e+009              0.532463          133.02      0.000967766        -50.9532      0.000967928        -50.9831         0.529663         133.148
1.5585e+009             0.531602         132.643      0.000960611         -51.399      0.000960758        -51.4271         0.528798         132.773
1.56e+009               0.530746         132.267      0.000953464        -51.8415      0.000953598        -51.8677         0.527938         132.399
1.5615e+009             0.529894         131.891      0.000946325        -52.2806      0.000946448         -52.305         0.527082         132.025
1.563e+009              0.529047         131.516      0.000939195        -52.7164      0.000939308         -52.739          0.52623         131.652
1.5645e+009             0.528203         131.142      0.000932075        -53.1488      0.000932178        -53.1695         0.525383          131.28
1.566e+009              0.527364         130.768      0.000924965        -53.5778       0.00092506        -53.5967         0.524541         130.908
1.5675e+009             0.526528         130.395      0.000917866        -54.0034      0.000917954        -54.0205         0.523703         130.537
1.569e+009              0.525697         130.023      0.000910777        -54.4257      0.000910859        -54.4408          0.52287         130.167
1.5705e+009              0.52487         129.651        0.0009037        -54.8444      0.000903777        -54.8577         0.522041         129.797
1.572e+009              0.524048          129.28      0.000896634        -55.2598      0.000896708        -55.2712         0.521217         129.428
1.5735e+009             0.523229          128.91      0.000889581        -55.6716      0.000889652        -55.6812         0.520397          129.06
1.575e+009              0.522414          128.54      0.000882541        -56.0799       0.00088261        -56.0877         0.519581         128.692
1.5765e+009             0.521604         128.171      0.000875513        -56.4847      0.000875581        -56.4907          0.51877         128.325
1.578e+009              0.520797         127.803        0.0008685        -56.8859      0.000868568        -56.8901         0.517964         127.959
1.5795e+009             0.519995         127.436        0.0008615        -57.2835      0.000861569         -57.286         0.517162         127.593
1.581e+009              0.519197         127.069      0.000854514        -57.6775      0.000854585        -57.6783         0.516364         127.229
1.5825e+009             0.518403         126.703      0.000847544        -58.0678      0.000847617        -58.0669          0.51557         126.864
1.584e+009              0.517613         126.338      0.000840589        -58.4545      0.000840665        -58.4519         0.514781         126.501
1.5855e+009             0.516826         125.973      0.000833649        -58.8374      0.000833729        -58.8332         0.513997         126.138
1.587e+009              0.516044         125.609      0.000826725        -59.2165       0.00082681        -59.2108         0.513216         125.776
1.5885e+009             0.515266         125.246      0.000819818        -59.5918      0.000819908        -59.5846          0.51244         125.415
1.59e+009               0.514492         124.884      0.000812928        -59.9632      0.000813024        -59.9546         0.511668         125.055
1.5915e+009             0.513721         124.522      0.000806055        -60.3308      0.000806157        -60.3207           0.5109         124.695
1.593e+009              0.512955         124.162        0.0007992        -60.6944      0.000799309        -60.6829         0.510137         124.336
1.5945e+009             0.512193         123.802      0.000792363         -61.054      0.000792479        -61.0412         0.509378         123.978
1.596e+009              0.511434         123.442      0.000785544        -61.4095      0.000785668        -61.3955         0.508623          123.62
1.5975e+009             0.510679         123.084      0.000778745         -61.761      0.000778877        -61.7458         0.507872         123.263
1.599e+009              0.509928         122.726      0.000771965        -62.1083      0.000772106         -62.092         0.507125         122.907
1.6005e+009             0.509181         122.369      0.000765206        -62.4514      0.000765354        -62.4341         0.506383         122.552
1.602e+009              0.508438         122.013      0.000758466        -62.7902      0.000758624        -62.7719         0.505644         122.197
1.6035e+009             0.507699         121.658      0.000751748        -63.1247      0.000751914        -63.1055          0.50491         121.844
1.605e+009              0.506963         121.303      0.000745051        -63.4548      0.000745226        -63.4348         0.504179         121.491
1.6065e+009             0.506232          120.95      0.000738376        -63.7804       0.00073856        -63.7597         0.503453         121.138
1.608e+009              0.505504         120.597      0.000731723        -64.1015      0.000731917        -64.0802         0.502731         120.787
1.6095e+009             0.504779         120.245      0.000725094        -64.4181      0.000725296        -64.3961         0.502012         120.436
1.611e+009              0.504059         119.893      0.000718487          -64.73      0.000718698        -64.7075         0.501298         120.087
1.6125e+009             0.503342         119.543      0.000711904        -65.0371      0.000712124        -65.0143         0.500588         119.738
1.614e+009              0.502629         119.193      0.000705346        -65.3395      0.000705575        -65.3163         0.499881         119.389
1.6155e+009             0.501919         118.844      0.000698813         -65.637       0.00069905        -65.6136         0.499179         119.042
1.617e+009              0.501213         118.497      0.000692305        -65.9296       0.00069255         -65.906          0.49848         118.695
1.6185e+009             0.500511         118.149      0.000685823        -66.2171      0.000686076        -66.1934         0.497785         118.349
1.62e+009               0.499812         117.803      0.000679368        -66.4995      0.000679628        -66.4759         0.497094         118.004
1.6215e+009             0.499117         117.458      0.000672939        -66.7767      0.000673207        -66.7532         0.496407          117.66
1.623e+009              0.498426         117.113      0.000666539        -67.0486      0.000666813        -67.0254         0.495724         117.317
1.6245e+009             0.497738         116.769      0.000660167        -67.3152      0.000660447        -67.2922         0.495044         116.974
1.626e+009              0.497053         116.426      0.000653823        -67.5763      0.000654109        -67.5537         0.494368         116.632
1.6275e+009             0.496372         116.084      0.000647509        -67.8319        0.0006478        -67.8098         0.493696         116.291
1.629e+009              0.495695         115.743      0.000641225        -68.0818      0.000641521        -68.0603         0.493027         115.951
1.6305e+009             0.495021         115.403      0.000634972         -68.326      0.000635272        -68.3052         0.492363         115.612
1.632e+009              0.494351         115.063       0.00062875        -68.5644      0.000629053        -68.5443         0.491701         115.273
1.6335e+009             0.493684         114.725       0.00062256        -68.7968      0.000622866        -68.7776         0.491044         114.936
1.635e+009               0.49302         114.387      0.000616403        -69.0233      0.000616711         -69.005          0.49039         114.599
1.6365e+009              0.49236          114.05      0.000610279        -69.2436      0.000610588        -69.2263         0.489739         114.263
1.638e+009              0.491703         113.714      0.000604189        -69.4576      0.000604498        -69.4415         0.489092         113.928
1.6395e+009             0.491049         113.379      0.000598133        -69.6654      0.000598442        -69.6505         0.488449         113.594
1.641e+009              0.490399         113.045      0.000592113        -69.8667      0.000592421        -69.8531         0.487809          113.26
1.6425e+009             0.489752         112.711      0.000586128        -70.0615      0.000586435        -70.0492         0.487172         112.928
1.644e+009              0.489108         112.379      0.000580181        -70.2496      0.000580484        -70.2388         0.486539         112.596
1.6455e+009             0.488468         112.047      0.000574271        -70.4309       0.00057457        -70.4216         0.485909         112.265
1.647e+009              0.487831         111.717      0.000568398        -70.6054      0.000568694        -70.5977         0.485283         111.935
1.6485e+009             0.487197         111.387      0.000562565        -70.7729      0.000562855        -70.7669          0.48466         111.606
1.65e+009               0.486567         111.058      0.000556771        -70.9333      0.000557055         -70.929          0.48404         111.278
1.6515e+009             0.485939          110.73      0.000551018        -71.0865      0.000551294         -71.084         0.483424          110.95
1.653e+009              0.485315         110.403      0.000545305        -71.2323      0.000545573        -71.2317         0.482811         110.624
1.6545e+009             0.484694         110.077      0.000539635        -71.3707      0.000539893        -71.3721         0.482201         110.298
1.656e+009              0.484076         109.751      0.000534007        -71.5015      0.000534255        -71.5049         0.481595         109.973
1.6575e+009             0.483461         109.427      0.000528422        -71.6247      0.000528659        -71.6301         0.480991          109.65
1.659e+009              0.482849         109.104      0.000522881          -71.74      0.000523107        -71.7475         0.480391         109.326
1.6605e+009              0.48224         108.781      0.000517386        -71.8474      0.000517598        -71.8571         0.479794         109.004
1.662e+009              0.481635          108.46      0.000511936        -71.9468      0.000512134        -71.9586           0.4792         108.683
1.6635e+009             0.481032         108.139      0.000506532        -72.0381      0.000506716        -72.0521         0.478609         108.363
1.665e+009              0.480432         107.819      0.000501176         -72.121      0.000501343        -72.1372         0.478022         108.043
1.6665e+009             0.479836           107.5      0.000495868        -72.1956      0.000496019        -72.2141         0.477437         107.725
1.668e+009              0.479242         107.182      0.000490609        -72.2617      0.000490742        -72.2824         0.476855         107.407
1.6695e+009             0.478651         106.865        0.0004854        -72.3191      0.000485514        -72.3421         0.476277          107.09
1.671e+009              0.478064         106.549      0.000480241        -72.3678      0.000480335        -72.3931         0.475701         106.774
1.6725e+009             0.477479         106.234      0.000475133        -72.4077      0.000475207        -72.4352         0.475128         106.459
1.674e+009              0.476897          105.92      0.000470078        -72.4386      0.000470131        -72.4684         0.474559         106.145
1.6755e+009             0.476318         105.607      0.000465076        -72.4604      0.000465106        -72.4924         0.473992         105.832
1.677e+009              0.475741         105.294      0.000460127        -72.4731      0.000460135        -72.5073         0.473428          105.52
1.6785e+009             0.475168         104.983      0.000455234        -72.4765      0.000455217        -72.5129         0.472867         105.208
1.68e+009               0.474597         104.673      0.000450396        -72.4705      0.000450354         -72.509         0.472308         104.898
1.6815e+009              0.47403         104.363      0.000445614         -72.455      0.000445547        -72.4956         0.471753         104.588
1.683e+009              0.473465         104.054      0.000440889        -72.4299      0.000440796        -72.4725           0.4712         104.279
1.6845e+009             0.472902         103.747      0.000436223        -72.3952      0.000436103        -72.4398          0.47065         103.971
1.686e+009              0.472343          103.44      0.000431615        -72.3508      0.000431468        -72.3972         0.470103         103.665
1.6875e+009             0.471786         103.134      0.000427067        -72.2965      0.000426891        -72.3447         0.469558         103.359
1.689e+009              0.471232         102.829      0.000422579        -72.2323      0.000422375        -72.2821         0.469017         103.053
1.6905e+009             0.470681         102.526      0.000418152        -72.1581      0.000417919        -72.2096         0.468478         102.749
1.692e+009              0.470132         102.223      0.000413788        -72.0739      0.000413525        -72.1268         0.467941         102.446
1.6935e+009             0.469586         101.921      0.000409487        -71.9795      0.000409194        -72.0338         0.467407         102.144
1.695e+009              0.469042          101.62      0.000405249        -71.8751      0.000404925        -71.9306         0.466876         101.842
1.6965e+009             0.468502         101.319      0.000401075        -71.7605      0.000400721         -71.817         0.466347         101.542
1.698e+009              0.467963          101.02      0.000396967        -71.6356      0.000396581        -71.6931         0.465821         101.242
1.6995e+009             0.467428         100.722      0.000392925        -71.5005      0.000392508        -71.5588         0.465298         100.944
1.7e+009                 0.46725         100.623      0.000391592        -71.4532      0.000391164        -71.5117         0.465124         100.844
1.701e+009              0.466894         100.425      0.000388949        -71.3551        0.0003885         -71.414         0.464777         100.646
1.7025e+009             0.466364         100.128      0.000385041        -71.1995       0.00038456        -71.2588         0.464258         100.349
1.704e+009              0.465836         99.8331      0.000381201        -71.0336      0.000380688        -71.0931         0.463742         100.053
1.7055e+009              0.46531         99.5386       0.00037743        -70.8575      0.000376885         -70.917         0.463228          99.758
1.707e+009              0.464787         99.2451      0.000373729        -70.6711      0.000373151        -70.7305         0.462717         99.4639
1.7085e+009             0.464266         98.9526      0.000370097        -70.4745      0.000369488        -70.5335         0.462209         99.1708
1.71e+009               0.463748          98.661      0.000366537        -70.2679      0.000365895        -70.3262         0.461702         98.8785
1.7115e+009             0.463232         98.3703      0.000363047        -70.0511      0.000362374        -70.1087         0.461198         98.5872
1.713e+009              0.462719         98.0806       0.00035963        -69.8243      0.000358925        -69.8808         0.460697         98.2968
1.7145e+009             0.462208         97.7919      0.000356285        -69.5877      0.000355549        -69.6429         0.460197         98.0074
1.716e+009              0.461699         97.5041      0.000353014        -69.3412      0.000352246        -69.3949           0.4597         97.7188
1.7175e+009             0.461193         97.2172      0.000349816        -69.0851      0.000349017        -69.1369         0.459205         97.4312
1.719e+009              0.460689         96.9313      0.000346691        -68.8193      0.000345863        -68.8691         0.458713         97.1445
1.7205e+009             0.460188         96.6463      0.000343642        -68.5442      0.000342784        -68.5917         0.458223         96.8587
1.722e+009              0.459688         96.3623      0.000340667        -68.2599       0.00033978        -68.3047         0.457735         96.5739
1.7235e+009             0.459191         96.0792      0.000337767        -67.9664      0.000336852        -68.0084         0.457249           96.29
1.725e+009              0.458697         95.7971      0.000334943        -67.6641         0.000334         -67.703         0.456766          96.007
1.7265e+009             0.458204         95.5159      0.000332195        -67.3531      0.000331225        -67.3886         0.456284         95.7249
1.728e+009              0.457714         95.2357      0.000329523        -67.0336      0.000328526        -67.0655         0.455805         95.4437
1.7295e+009             0.457226         94.9564      0.000326927        -66.7059      0.000325905        -66.7339         0.455328         95.1635
1.731e+009               0.45674          94.678      0.000324407        -66.3703      0.000323361        -66.3941         0.454853         94.8842
1.7325e+009             0.456256         94.4006      0.000321964         -66.027      0.000320894        -66.0463          0.45438         94.6058
1.734e+009              0.455775         94.1241      0.000319598        -65.6762      0.000318505        -65.6909         0.453909         94.3283
1.7355e+009             0.455295         93.8486      0.000317308        -65.3184      0.000316193        -65.3281         0.453441         94.0518
1.737e+009              0.454818          93.574      0.000315094        -64.9537      0.000313959        -64.9582         0.452974         93.7761
1.7385e+009             0.454343         93.3003      0.000312957        -64.5825      0.000311803        -64.5817         0.452509         93.5014
1.74e+009                0.45387         93.0276      0.000310896        -64.2052      0.000309724        -64.1987         0.452047         93.2277
1.7415e+009             0.453399         92.7558      0.000308911        -63.8221      0.000307722        -63.8097         0.451586         92.9548
1.743e+009               0.45293          92.485      0.000307002        -63.4335      0.000305797        -63.4151         0.451128         92.6829
1.7445e+009             0.452463         92.2151      0.000305168        -63.0398      0.000303948        -63.0151         0.450671         92.4118
1.746e+009              0.451998         91.9461       0.00030341        -62.6415      0.000302177        -62.6103         0.450216         92.1417
1.7475e+009             0.451536         91.6781      0.000301726        -62.2388      0.000300481        -62.2011         0.449764         91.8725
1.749e+009              0.451075         91.4109      0.000300116        -61.8322       0.00029886        -61.7877         0.449313         91.6043
1.7505e+009             0.450616         91.1448       0.00029858        -61.4221      0.000297315        -61.3707         0.448864         91.3369
1.752e+009              0.450159         90.8795      0.000297117        -61.0089      0.000295844        -60.9504         0.448417         91.0704
1.7535e+009             0.449704         90.6152      0.000295727        -60.5929      0.000294447        -60.5273         0.447971         90.8049
1.755e+009              0.449251         90.3518      0.000294408        -60.1747      0.000293123        -60.1018         0.447528         90.5403
1.7565e+009               0.4488         90.0893       0.00029316        -59.7546      0.000291871        -59.6744         0.447087         90.2766
1.758e+009              0.448351         89.8277      0.000291983         -59.333      0.000290691        -59.2454         0.446647         90.0138
1.7595e+009             0.447904         89.5671      0.000290875        -58.9103      0.000289582        -58.8153         0.446209         89.7519
1.761e+009              0.447459         89.3074      0.000289835         -58.487      0.000288543        -58.3846         0.445773         89.4909
1.7625e+009             0.447015         89.0486      0.000288864        -58.0635      0.000287572        -57.9536         0.445338         89.2308
1.764e+009              0.446574         88.7907      0.000287958        -57.6402       0.00028667        -57.5228         0.444906         88.9716
1.7655e+009             0.446134         88.5338      0.000287119        -57.2174      0.000285834        -57.0926         0.444475         88.7134
1.767e+009              0.445696         88.2777      0.000286344        -56.7957      0.000285065        -56.6635         0.444046          88.456
1.7685e+009             0.445259         88.0226      0.000285632        -56.3752       0.00028436        -56.2357         0.443618         88.1995
1.77e+009               0.444825         87.7683      0.000284983        -55.9565      0.000283719        -55.8098         0.443193          87.944
1.7715e+009             0.444392          87.515      0.000284395        -55.5399       0.00028314         -55.386         0.442769         87.6893
1.773e+009              0.443961         87.2626      0.000283867        -55.1258      0.000282622        -54.9649         0.442346         87.4355
1.7745e+009             0.443532         87.0111      0.000283398        -54.7145      0.000282164        -54.5466         0.441925         87.1827
1.776e+009              0.443104         86.7605      0.000282986        -54.3064      0.000281765        -54.1317         0.441506         86.9307
1.7775e+009             0.442679         86.5108       0.00028263        -53.9017      0.000281423        -53.7204         0.441089         86.6796
1.779e+009              0.442255          86.262       0.00028233        -53.5008      0.000281137         -53.313         0.440673         86.4294
1.7805e+009             0.441832         86.0141      0.000282083         -53.104      0.000280906        -52.9099         0.440258         86.1801
1.782e+009              0.441411         85.7671      0.000281889        -52.7116      0.000280728        -52.5114         0.439846         85.9317
1.7835e+009             0.440992          85.521      0.000281746        -52.3238      0.000280602        -52.1177         0.439434         85.6841
1.785e+009              0.440575         85.2758      0.000281652        -51.9409      0.000280526        -51.7291         0.439025         85.4375
1.7865e+009             0.440159         85.0314      0.000281607        -51.5632        0.0002805        -51.3459         0.438617         85.1917
1.788e+009              0.439744          84.788      0.000281609        -51.1908      0.000280521        -50.9682          0.43821         84.9468
1.7895e+009             0.439331         84.5455      0.000281656         -50.824      0.000280589        -50.5964         0.437805         84.7028
1.791e+009               0.43892         84.3038      0.000281748         -50.463      0.000280702        -50.2306         0.437401         84.4596
1.7925e+009             0.438511          84.063      0.000281883         -50.108      0.000280859        -49.8709         0.436999         84.2174
1.794e+009              0.438102         83.8231      0.000282059        -49.7591      0.000281057        -49.5177         0.436598          83.976
1.7955e+009             0.437696          83.584      0.000282276        -49.4165      0.000281296         -49.171         0.436199         83.7354