! TOUCHSTONE file generated by CST MICROWAVE STUDIO
! Date and time: Tue Jan 14 09:39:21 2020
! Project name: Cloverleaf_Modified_Ground_20.cst
! Parameters = {A=0.0005; Dgp=0.033; Lgp=0.1; Lhorn=0.03; Lmax=0.015; Lmin=0.001; b=90.2683; dLhorn=1000}
! Header version: 2015
! Port assignment regex: !\s*Touchstone port\s*([0-9]+)\s*=\s*CST MWS port\s*([0-9]+)\s*\(\"(.*)\"\)(\s*mode\s*([0-9]+))?.*
! Touchstone port assignment:
! Touchstone port 1 = CST MWS port 1 ("")
! Touchstone port 2 = CST MWS port 2 ("")
# Hz S MA R 100
1.5e+009                0.574701         144.957      0.000565756         125.459      0.000565892         125.423          0.57732         144.954
1.5015e+009             0.573522         144.568      0.000566531         124.405      0.000566656         124.368         0.576111         144.563
1.503e+009               0.57235         144.179      0.000567295         123.352      0.000567408         123.315         0.574908         144.173
1.5045e+009             0.571185         143.791      0.000568048         122.303       0.00056815         122.264         0.573713         143.784
1.506e+009              0.570027         143.403       0.00056879         121.255      0.000568882         121.216         0.572524         143.395
1.5075e+009             0.568876         143.016      0.000569524          120.21      0.000569606          120.17         0.571343         143.007
1.509e+009              0.567732          142.63      0.000570249         119.167      0.000570321         119.126         0.570169          142.62
1.5105e+009             0.566595         142.244      0.000570967         118.126      0.000571029         118.085         0.569001         142.233
1.512e+009              0.565465         141.859      0.000571677         117.088      0.000571731         117.047         0.567841         141.847
1.5135e+009             0.564341         141.475      0.000572381         116.052      0.000572427         116.011         0.566688         141.462
1.515e+009              0.563225         141.091       0.00057308         115.018      0.000573117         114.977         0.565542         141.077
1.5165e+009             0.562115         140.708      0.000573773         113.987      0.000573804         113.945         0.564403         140.693
1.518e+009              0.561012         140.326      0.000574463         112.958      0.000574486         112.917          0.56327          140.31
1.5195e+009             0.559916         139.944      0.000575149         111.931      0.000575165          111.89         0.562145         139.927
1.521e+009              0.558827         139.563      0.000575831         110.907      0.000575842         110.866         0.561027         139.545
1.5225e+009             0.557744         139.183      0.000576511         109.885      0.000576517         109.844         0.559916         139.164
1.524e+009              0.556669         138.804       0.00057719         108.865       0.00057719         108.825         0.558812         138.783
1.5255e+009               0.5556         138.425      0.000577867         107.847      0.000577863         107.808         0.557714         138.403
1.527e+009              0.554538         138.046      0.000578543         106.832      0.000578535         106.793         0.556624         138.024
1.5285e+009             0.553483         137.669      0.000579219         105.819      0.000579208         105.781          0.55554         137.646
1.53e+009               0.552435         137.292      0.000579896         104.809      0.000579881         104.771         0.554464         137.268
1.5315e+009             0.551393         136.916      0.000580573         103.801      0.000580556         103.763         0.553394         136.891
1.533e+009              0.550358          136.54      0.000581252         102.795      0.000581232         102.758         0.552331         136.514
1.5345e+009              0.54933         136.166      0.000581932         101.791      0.000581911         101.755         0.551275         136.139
1.536e+009              0.548308         135.792      0.000582614          100.79      0.000582593         100.755         0.550226         135.764
1.5375e+009             0.547293         135.418      0.000583299          99.791      0.000583277         99.7567         0.549184          135.39
1.539e+009              0.546285         135.046      0.000583987         98.7943      0.000583965         98.7609         0.548148         135.016
1.5405e+009             0.545283         134.674      0.000584679         97.7999      0.000584657         97.7674         0.547119         134.644
1.542e+009              0.544288         134.303      0.000585374         96.8077      0.000585353         96.7761         0.546097         134.272
1.5435e+009               0.5433         133.932      0.000586073         95.8179      0.000586054         95.7872         0.545082           133.9
1.545e+009              0.542318         133.563      0.000586777         94.8303      0.000586759         94.8006         0.544073          133.53
1.5465e+009             0.541343         133.194      0.000587486          93.845       0.00058747         93.8162         0.543071          133.16
1.548e+009              0.540374         132.825        0.0005882          92.862      0.000588186         92.8341         0.542076         132.791
1.5495e+009             0.539412         132.458      0.000588919         91.8812      0.000588909         91.8544         0.541088         132.423
1.551e+009              0.538456         132.091      0.000589644         90.9027      0.000589637         90.8768         0.540105         132.055
1.5525e+009             0.537507         131.725      0.000590375         89.9264      0.000590372         89.9016          0.53913         131.689
1.554e+009              0.536564          131.36      0.000591112         88.9524      0.000591113         88.9286         0.538161         131.323
1.5555e+009             0.535627         130.996      0.000591855         87.9807      0.000591861         87.9578         0.537199         130.958
1.557e+009              0.534697         130.632      0.000592606         87.0112      0.000592617         86.9893         0.536243         130.593
1.5585e+009             0.533773         130.269      0.000593363         86.0439      0.000593379          86.023         0.535294          130.23
1.56e+009               0.532856         129.907      0.000594127         85.0789      0.000594149          85.059         0.534351         129.867
1.5615e+009             0.531945         129.546      0.000594899         84.1161      0.000594927         84.0972         0.533414         129.505
1.563e+009               0.53104         129.185      0.000595679         83.1555      0.000595713         83.1376         0.532484         129.143
1.5645e+009             0.530141         128.826      0.000596465         82.1972      0.000596506         82.1802         0.531561         128.783
1.566e+009              0.529249         128.467       0.00059726         81.2411      0.000597308         81.2251         0.530643         128.423
1.5675e+009             0.528362         128.108      0.000598063         80.2872      0.000598118         80.2721         0.529732         128.064
1.569e+009              0.527482         127.751      0.000598874         79.3355      0.000598936         79.3214         0.528828         127.706
1.5705e+009             0.526608         127.394      0.000599693         78.3861      0.000599763         78.3729         0.527929         127.349
1.572e+009              0.525741         127.038       0.00060052         77.4389      0.000600598         77.4265         0.527037         126.992
1.5735e+009             0.524879         126.683      0.000601356         76.4938      0.000601442         76.4824         0.526151         126.637
1.575e+009              0.524023         126.329      0.000602201          75.551      0.000602295         75.5404         0.525271         126.282
1.5765e+009             0.523173         125.976      0.000603053         74.6104      0.000603156         74.6007         0.524397         125.928
1.578e+009               0.52233         125.623      0.000603915         73.6721      0.000604027         73.6631          0.52353         125.575
1.5795e+009             0.521492         125.271      0.000604785         72.7359      0.000604906         72.7277         0.522668         125.222
1.581e+009               0.52066          124.92      0.000605664         71.8019      0.000605795         71.7945         0.521813          124.87
1.5825e+009             0.519834          124.57      0.000606552         70.8701      0.000606692         70.8635         0.520963          124.52
1.584e+009              0.519014         124.221      0.000607449         69.9405      0.000607598         69.9347          0.52012          124.17
1.5855e+009               0.5182         123.872      0.000608355         69.0131      0.000608513          69.008         0.519282          123.82
1.587e+009              0.517391         123.524      0.000609269          68.088      0.000609438         68.0835         0.518451         123.472
1.5885e+009             0.516589         123.178      0.000610192          67.165      0.000610371         67.1611         0.517625         123.125
1.59e+009               0.515792         122.831      0.000611125         66.2442      0.000611313          66.241         0.516805         122.778
1.5915e+009                0.515         122.486      0.000612066         65.3256      0.000612264          65.323         0.515991         122.432
1.593e+009              0.514215         122.142      0.000613016         64.4092      0.000613224         64.4072         0.515183         122.087
1.5945e+009             0.513435         121.798      0.000613974         63.4949      0.000614193         63.4935          0.51438         121.743
1.596e+009               0.51266         121.455      0.000614942         62.5829      0.000615171          62.582         0.513583         121.399
1.5975e+009             0.511891         121.113      0.000615918         61.6731      0.000616158         61.6726         0.512792         121.057
1.599e+009              0.511128         120.772      0.000616903         60.7654      0.000617153         60.7655         0.512006         120.715
1.6005e+009              0.51037         120.432      0.000617897           59.86      0.000618158         59.8604         0.511227         120.374
1.602e+009              0.509617         120.093      0.000618899         58.9567       0.00061917         58.9576         0.510452         120.034
1.6035e+009              0.50887         119.754      0.000619909         58.0556      0.000620192         58.0569         0.509683         119.695
1.605e+009              0.508129         119.416      0.000620929         57.1567      0.000621221         57.1583          0.50892         119.357
1.6065e+009             0.507393         119.079      0.000621956           56.26      0.000622259          56.262         0.508162          119.02
1.608e+009              0.506662         118.743      0.000622992         55.3655      0.000623306         55.3677          0.50741         118.683
1.6095e+009             0.505936         118.408      0.000624036         54.4731       0.00062436         54.4757         0.506663         118.347
1.611e+009              0.505215         118.074      0.000625088         53.5829      0.000625423         53.5857         0.505921         118.012
1.6125e+009               0.5045          117.74      0.000626148          52.695      0.000626494          52.698         0.505185         117.678
1.614e+009               0.50379         117.408      0.000627216         51.8092      0.000627572         51.8124         0.504454         117.345
1.6155e+009             0.503085         117.076      0.000628291         50.9255      0.000628658         50.9289         0.503728         117.013
1.617e+009              0.502385         116.745      0.000629375         50.0441      0.000629752         50.0476         0.503007         116.682
1.6185e+009             0.501691         116.415      0.000630466         49.1649      0.000630853         49.1685         0.502292         116.351
1.62e+009               0.501001         116.086      0.000631564         48.2878      0.000631962         48.2915         0.501581         116.021
1.6215e+009             0.500316         115.758      0.000632669         47.4129      0.000633078         47.4166         0.500876         115.693
1.623e+009              0.499636          115.43      0.000633782         46.5402      0.000634201          46.544         0.500176         115.365
1.6245e+009             0.498961         115.104      0.000634902         45.6696      0.000635331         45.6734         0.499481         115.038
1.626e+009              0.498291         114.778      0.000636029         44.8013      0.000636467          44.805         0.498791         114.711
1.6275e+009             0.497626         114.453      0.000637162         43.9351      0.000637611         43.9388         0.498106         114.386
1.629e+009              0.496966         114.129      0.000638302         43.0711       0.00063876         43.0747         0.497425         114.061
1.6305e+009              0.49631         113.806      0.000639449         42.2092      0.000639917         42.2128          0.49675         113.738
1.632e+009               0.49566         113.484      0.000640602         41.3496      0.000641079          41.353         0.496079         113.415
1.6335e+009             0.495013         113.162      0.000641761         40.4921      0.000642247         40.4954         0.495414         113.093
1.635e+009              0.494372         112.842      0.000642926         39.6368      0.000643422         39.6399         0.494753         112.772
1.6365e+009             0.493735         112.522      0.000644096         38.7836      0.000644602         38.7865         0.494097         112.452
1.638e+009              0.493103         112.203      0.000645273         37.9326      0.000645787         37.9354         0.493445         112.133
1.6395e+009             0.492475         111.885      0.000646455         37.0838      0.000646978         37.0863         0.492798         111.815
1.641e+009              0.491852         111.568      0.000647642         36.2372      0.000648174         36.2394         0.492156         111.497
1.6425e+009             0.491233         111.252      0.000648835         35.3927      0.000649375         35.3947         0.491518         111.181
1.644e+009              0.490619         110.937      0.000650032         34.5504      0.000650581          34.552         0.490885         110.865
1.6455e+009             0.490009         110.623      0.000651234         33.7102      0.000651791         33.7116         0.490257          110.55
1.647e+009              0.489404         110.309      0.000652441         32.8722      0.000653006         32.8732         0.489633         110.236
1.6485e+009             0.488803         109.996      0.000653653         32.0364      0.000654226          32.037         0.489013         109.923
1.65e+009               0.488206         109.685      0.000654869         31.2027      0.000655449          31.203         0.488398         109.611
1.6515e+009             0.487613         109.374      0.000656088         30.3712      0.000656676         30.3711         0.487787           109.3
1.653e+009              0.487025         109.064      0.000657312         29.5418      0.000657907         29.5413          0.48718         108.989
1.6545e+009             0.486441         108.755       0.00065854         28.7146      0.000659142         28.7136         0.486578          108.68
1.656e+009              0.485861         108.446      0.000659771         27.8895       0.00066038         27.8881          0.48598         108.371
1.6575e+009             0.485285         108.139      0.000661005         27.0666      0.000661621         27.0647         0.485386         108.063
1.659e+009              0.484713         107.833      0.000662243         26.2458      0.000662866         26.2435         0.484796         107.756
1.6605e+009             0.484145         107.527      0.000663484         25.4271      0.000664113         25.4243         0.484211          107.45
1.662e+009              0.483582         107.222      0.000664727         24.6106      0.000665362         24.6073         0.483629         107.145
1.6635e+009             0.483022         106.919      0.000665974         23.7962      0.000666614         23.7924         0.483052         106.841
1.665e+009              0.482466         106.616      0.000667222          22.984      0.000667869         22.9797         0.482479         106.538
1.6665e+009             0.481914         106.313      0.000668473         22.1739      0.000669125          22.169         0.481909         106.235
1.668e+009              0.481366         106.012      0.000669726         21.3659      0.000670383         21.3605         0.481344         105.934
1.6695e+009             0.480822         105.712      0.000670981           20.56      0.000671643         20.5541         0.480783         105.633
1.671e+009              0.480281         105.413      0.000672237         19.7563      0.000672905         19.7497         0.480225         105.333
1.6725e+009             0.479744         105.114      0.000673495         18.9546      0.000674167         18.9475         0.479671         105.034
1.674e+009              0.479212         104.816      0.000674755         18.1551      0.000675431         18.1474         0.479121         104.736
1.6755e+009             0.478682          104.52      0.000676015         17.3577      0.000676696         17.3494         0.478575         104.439
1.677e+009              0.478157         104.224      0.000677276         16.5624      0.000677961         16.5535         0.478033         104.143
1.6785e+009             0.477635         103.929      0.000678539         15.7692      0.000679227         15.7597         0.477494         103.847
1.68e+009               0.477116         103.634      0.000679801         14.9781      0.000680493          14.968          0.47696         103.553
1.6815e+009             0.476601         103.341      0.000681064         14.1891      0.000681759         14.1784         0.476428         103.259
1.683e+009               0.47609         103.049      0.000682327         13.4022      0.000683025         13.3909         0.475901         102.966
1.6845e+009             0.475582         102.757      0.000683591         12.6174      0.000684291         12.6054         0.475376         102.675
1.686e+009              0.475078         102.467      0.000684854         11.8346      0.000685557          11.822         0.474856         102.384
1.6875e+009             0.474577         102.177      0.000686116          11.054      0.000686822         11.0407         0.474339         102.094
1.689e+009              0.474079         101.888      0.000687378         10.2754      0.000688086         10.2615         0.473825         101.804
1.6905e+009             0.473585           101.6      0.000688639         9.49884      0.000689349         9.48431         0.473315         101.516
1.692e+009              0.473094         101.313        0.0006899         8.72439      0.000690611          8.7092         0.472808         101.229
1.6935e+009             0.472606         101.027      0.000691159         7.95199      0.000691872         7.93615         0.472305         100.942
1.695e+009              0.472121         100.741      0.000692416         7.18165      0.000693131         7.16516         0.471805         100.656
1.6965e+009              0.47164         100.457      0.000693673         6.41336      0.000694388         6.39621         0.471308         100.371
1.698e+009              0.471162         100.173      0.000694927         5.64711      0.000695643         5.62932         0.470814         100.088
1.6995e+009             0.470687         99.8905       0.00069618         4.88291      0.000696896         4.86446         0.470324         99.8044
1.7e+009                 0.47053         99.7964      0.000696597         4.62863      0.000697314         4.60996         0.470161         99.7103
1.701e+009              0.470215         99.6086       0.00069743         4.12074      0.000698147         4.10163         0.469837         99.5223
1.7025e+009             0.469747         99.3276      0.000698679          3.3606      0.000699396         3.34084         0.469353         99.2409
1.704e+009              0.469281         99.0475      0.000699925         2.60249      0.000700641         2.58208         0.468872         98.9605
1.7055e+009             0.468818         98.7682      0.000701168          1.8464      0.000701884         1.82534         0.468394         98.6809
1.707e+009              0.468358         98.4898      0.000702408         1.09232      0.000703124         1.07061          0.46792         98.4022
1.7085e+009             0.467902         98.2123      0.000703646        0.340247      0.000704361        0.317899         0.467448         98.1244
1.71e+009               0.467448         97.9356       0.00070488        -0.40982      0.000705595       -0.432808         0.466979         97.8475
1.7115e+009             0.466997         97.6598      0.000706112        -1.15789      0.000706825        -1.18151         0.466514         97.5714
1.713e+009              0.466549         97.3849      0.000707339        -1.90397      0.000708051        -1.92822         0.466051         97.2962
1.7145e+009             0.466103         97.1109      0.000708563        -2.64806      0.000709273        -2.67294         0.465591         97.0218
1.716e+009              0.465661         96.8377      0.000709783        -3.39017      0.000710492        -3.41568         0.465134         96.7483
1.7175e+009             0.465221         96.5653      0.000710999        -4.13031      0.000711706        -4.15643          0.46468         96.4757
1.719e+009              0.464784         96.2939      0.000712211        -4.86848      0.000712916        -4.89521         0.464229          96.204
1.7205e+009              0.46435         96.0232      0.000713419        -5.60468      0.000714121        -5.63203          0.46378         95.9331
1.722e+009              0.463918         95.7535      0.000714622        -6.33893      0.000715321        -6.36688         0.463335         95.6631
1.7235e+009             0.463489         95.4846      0.000715821        -7.07124      0.000716517        -7.09977         0.462891         95.3939
1.725e+009              0.463062         95.2166      0.000717015        -7.80159      0.000717708        -7.83071         0.462451         95.1256
1.7265e+009             0.462639         94.9494      0.000718203        -8.53001      0.000718894        -8.55971         0.462013         94.8582
1.728e+009              0.462217         94.6831      0.000719387        -9.25651      0.000720074        -9.28677         0.461578         94.5916
1.7295e+009             0.461798         94.4176      0.000720565        -9.98107      0.000721248        -10.0119         0.461146         94.3259
1.731e+009              0.461382          94.153      0.000721738        -10.7037      0.000722418        -10.7351         0.460716          94.061
1.7325e+009             0.460968         93.8892      0.000722905        -11.4245      0.000723581        -11.4564         0.460288          93.797
1.734e+009              0.460557         93.6263      0.000724067        -12.1433      0.000724738        -12.1758         0.459863         93.5338
1.7355e+009             0.460148         93.3642      0.000725222        -12.8602       0.00072589        -12.8932         0.459441         93.2715
1.737e+009              0.459741          93.103      0.000726372        -13.5753      0.000727035        -13.6088         0.459021         93.0101
1.7385e+009             0.459337         92.8426      0.000727515        -14.2884      0.000728173        -14.3225         0.458603         92.7494
1.74e+009               0.458935         92.5831      0.000728652        -14.9997      0.000729306        -15.0342         0.458188         92.4897
1.7415e+009             0.458535         92.3244      0.000729782        -15.7091      0.000730431        -15.7441         0.457775         92.2308
1.743e+009              0.458137         92.0665      0.000730906        -16.4167       0.00073155        -16.4522         0.457365         91.9727
1.7445e+009             0.457742         91.8095      0.000732023        -17.1224      0.000732662        -17.1583         0.456957         91.7155
1.746e+009              0.457349         91.5534      0.000733133        -17.8262      0.000733766        -17.8626         0.456551         91.4591
1.7475e+009             0.456958          91.298      0.000734235        -18.5282      0.000734864        -18.5651         0.456147         91.2036
1.749e+009              0.456569         91.0436      0.000735331        -19.2284      0.000735954        -19.2657         0.455746         90.9489
1.7505e+009             0.456183         90.7899      0.000736419        -19.9267      0.000737036        -19.9645         0.455346          90.695
1.752e+009              0.455798         90.5371        0.0007375        -20.6233      0.000738111        -20.6614         0.454949          90.442
1.7535e+009             0.455416         90.2851      0.000738573         -21.318      0.000739179        -21.3565         0.454554         90.1898
1.755e+009              0.455035         90.0339      0.000739639        -22.0109      0.000740238        -22.0498         0.454161         89.9384
1.7565e+009             0.454657         89.7836      0.000740696         -22.702      0.000741289        -22.7413         0.453771         89.6879
1.758e+009               0.45428         89.5341      0.000741746        -23.3913      0.000742333        -23.4309         0.453382         89.4382
1.7595e+009             0.453906         89.2854      0.000742787        -24.0788      0.000743368        -24.1188         0.452995         89.1893
1.761e+009              0.453533         89.0375      0.000743821        -24.7646      0.000744394        -24.8049          0.45261         88.9413
1.7625e+009             0.453162         88.7905      0.000744845        -25.4486      0.000745413        -25.4892         0.452228         88.6941
1.764e+009              0.452794         88.5443      0.000745862        -26.1308      0.000746422        -26.1717         0.451847         88.4477
1.7655e+009             0.452427         88.2989      0.000746869        -26.8112      0.000747423        -26.8525         0.451468         88.2021
1.767e+009              0.452061         88.0543      0.000747868          -27.49      0.000748415        -27.5315         0.451091         87.9574
1.7685e+009             0.451698         87.8105      0.000748858        -28.1669      0.000749398        -28.2088         0.450716         87.7135
1.77e+009               0.451337         87.5676      0.000749839        -28.8422      0.000750372        -28.8843         0.450343         87.4704
1.7715e+009             0.450977         87.3254      0.000750811        -29.5157      0.000751337         -29.558         0.449971         87.2281
1.773e+009              0.450619         87.0841      0.000751774        -30.1875      0.000752292        -30.2301         0.449602         86.9866
1.7745e+009             0.450262         86.8436      0.000752727        -30.8576      0.000753239        -30.9004         0.449234         86.7459
1.776e+009              0.449908         86.6039      0.000753671         -31.526      0.000754175         -31.569         0.448868         86.5061
1.7775e+009             0.449555          86.365      0.000754606        -32.1927      0.000755102        -32.2359         0.448503          86.267
1.779e+009              0.449203         86.1269       0.00075553        -32.8578       0.00075602        -32.9011         0.448141         86.0288
1.7805e+009             0.448853         85.8896      0.000756445        -33.5211      0.000756927        -33.5646          0.44778         85.7914
1.782e+009              0.448505         85.6531       0.00075735        -34.1828      0.000757825        -34.2264          0.44742         85.5547
1.7835e+009             0.448158         85.4174      0.000758246        -34.8428      0.000758712        -34.8866         0.447063         85.3189
1.785e+009              0.447813         85.1825      0.000759131        -35.5011       0.00075959        -35.5451         0.446707         85.0839
1.7865e+009              0.44747         84.9484      0.000760006        -36.1578      0.000760457        -36.2019         0.446352         84.8497
1.788e+009              0.447128         84.7151      0.000760871        -36.8129      0.000761315        -36.8571         0.445999         84.6163
1.7895e+009             0.446787         84.4825      0.000761725        -37.4663      0.000762161        -37.5106         0.445648         84.3836
1.791e+009              0.446448         84.2508      0.000762569        -38.1181      0.000762998        -38.1625         0.445298         84.1518
1.7925e+009              0.44611         84.0199      0.000763402        -38.7683      0.000763823        -38.8127         0.444949         83.9207
1.794e+009              0.445774         83.7897      0.000764225        -39.4169      0.000764638        -39.4613         0.444602         83.6905
1.7955e+009             0.445439         83.5603      0.000765037        -40.0639      0.000765443        -40.1083         0.444257          83.461