! TOUCHSTONE file generated by CST MICROWAVE STUDIO
! Date and time: Tue Dec 31 11:45:47 2019
! Project name: Cloverleaf_Modified_Ground.cst
! Parameters = {A=0.0005; Dgp=0.033; Lgp=0.1; Lhorn=0.03; Lmax=0.015; Lmin=0.001; b=90.2683; dLhorn=1000}
! Header version: 2015
! Port assignment regex: !\s*Touchstone port\s*([0-9]+)\s*=\s*CST MWS port\s*([0-9]+)\s*\(\"(.*)\"\)(\s*mode\s*([0-9]+))?.*
! Touchstone port assignment:
! Touchstone port 1 = CST MWS port 1 ("")
! Touchstone port 2 = CST MWS port 2 ("")
# Hz S MA R 100
400000000               0.996242        -26.6179      0.000405955         53.0818      0.000405948         53.0866         0.996986        -26.6049
402600000               0.996166        -26.8091      0.000406575         52.1987      0.000406544          52.202         0.996915        -26.7969
405200000               0.996091        -27.0006      0.000407146         51.3214      0.000407093         51.3234         0.996843        -26.9893
407800000               0.996014        -27.1925      0.000407667         50.4498      0.000407594         50.4508          0.99677         -27.182
410400000               0.995937        -27.3847      0.000408136          49.584      0.000408048         49.5841         0.996696         -27.375
413000000               0.995859        -27.5772      0.000408554         48.7239      0.000408452         48.7235         0.996621        -27.5683
415600000               0.995781          -27.77       0.00040892         47.8695      0.000408808         47.8687         0.996545         -27.762
418200000               0.995701        -27.9632      0.000409233          47.021      0.000409113         47.0199         0.996469        -27.9561
420800000               0.995622        -28.1568      0.000409493         46.1782      0.000409367          46.177         0.996391        -28.1505
423400000               0.995541        -28.3507      0.000409699         45.3411      0.000409571         45.3401         0.996312        -28.3452
426000000               0.995461        -28.5449      0.000409852         44.5099      0.000409723          44.509         0.996233        -28.5403
428600000               0.995379        -28.7395      0.000409951         43.6845      0.000409823         43.6839         0.996152        -28.7358
431200000               0.995297        -28.9345      0.000409995         42.8649      0.000409871         42.8646         0.996071        -28.9316
433800000               0.995214        -29.1298      0.000409985         42.0511      0.000409867         42.0513         0.995989        -29.1278
436400000               0.995131        -29.3255      0.000409921         41.2432      0.000409811          41.244         0.995906        -29.3243
439000000               0.995048        -29.5216      0.000409801         40.4413      0.000409701         40.4425         0.995822        -29.5213
441600000               0.994964         -29.718      0.000409628         39.6452      0.000409539         39.6471         0.995737        -29.7185
444200000               0.994879        -29.9148      0.000409399         38.8551      0.000409324         38.8576         0.995652        -29.9162
446800000               0.994794         -30.112      0.000409117         38.0709      0.000409056          38.074         0.995566        -30.1142
449400000               0.994708        -30.3096       0.00040878         37.2928      0.000408735         37.2965         0.995478        -30.3127
452000000               0.994622        -30.5076       0.00040839         36.5207      0.000408362          36.525         0.995391        -30.5115
454600000               0.994536        -30.7059      0.000407945         35.7547      0.000407936         35.7596         0.995302        -30.7107
457200000               0.994449        -30.9047      0.000407447         34.9948      0.000407458         35.0002         0.995212        -30.9103
459800000               0.994361        -31.1038      0.000406897          34.241      0.000406928          34.247         0.995122        -31.1103
462400000               0.994274        -31.3034      0.000406294         33.4934      0.000406346         33.4998         0.995031        -31.3107
465000000               0.994185        -31.5033      0.000405638         32.7519      0.000405713         32.7588         0.994939        -31.5115
467600000               0.994097        -31.7037      0.000404932         32.0168      0.000405029          32.024         0.994847        -31.7127
470200000               0.994008        -31.9045      0.000404174         31.2878      0.000404295         31.2953         0.994754        -31.9143
472800000               0.993918        -32.1057      0.000403366         30.5652       0.00040351         30.5729          0.99466        -32.1163
475400000               0.993829        -32.3073      0.000402508          29.849      0.000402677         29.8568         0.994565        -32.3188
478000000               0.993739        -32.5093      0.000401601          29.139      0.000401794          29.147          0.99447        -32.5217
480600000               0.993648        -32.7118      0.000400646         28.4356      0.000400863         28.4434         0.994374        -32.7249
483200000               0.993558        -32.9147      0.000399643         27.7385      0.000399885         27.7463         0.994278        -32.9287
485800000               0.993467        -33.1181      0.000398593         27.0479      0.000398859         27.0555         0.994181        -33.1328
488400000               0.993375        -33.3219      0.000397498         26.3638      0.000397788         26.3711         0.994083        -33.3374
491000000               0.993284        -33.5261      0.000396357         25.6863      0.000396671         25.6932         0.993984        -33.5425
493600000               0.993192        -33.7308      0.000395173         25.0153       0.00039551         25.0218         0.993885         -33.748
496200000                 0.9931        -33.9359      0.000393945         24.3509      0.000394305         24.3568         0.993786        -33.9539
498800000               0.993007        -34.1415      0.000392674         23.6931      0.000393057         23.6984         0.993685        -34.1603
501400000               0.992915        -34.3476      0.000391363          23.042      0.000391767         23.0466         0.993584        -34.3672
504000000               0.992822        -34.5541      0.000390011         22.3976      0.000390436         22.4014         0.993483        -34.5745
506600000               0.992729        -34.7612      0.000388619         21.7598      0.000389065         21.7627         0.993381        -34.7823
509200000               0.992636        -34.9686       0.00038719         21.1288      0.000387654         21.1308         0.993278        -34.9905
511800000               0.992542        -35.1766      0.000385723         20.5045      0.000386206         20.5054         0.993175        -35.1992
514400000               0.992448        -35.3851       0.00038422          19.887       0.00038472         19.8868         0.993072        -35.4085
517000000               0.992355         -35.594      0.000382682         19.2762      0.000383198         19.2749         0.992968        -35.6181
519600000                0.99226        -35.8035       0.00038111         18.6722      0.000381641         18.6698         0.992863        -35.8283
522200000               0.992166        -36.0134      0.000379504         18.0751       0.00038005         18.0713         0.992758         -36.039
524800000               0.992072        -36.2239      0.000377867         17.4847      0.000378426         17.4797         0.992652        -36.2502
527400000               0.991977        -36.4348        0.0003762         16.9012       0.00037677         16.8949         0.992546        -36.4618
530000000               0.991883        -36.6463      0.000374502         16.3245      0.000375083         16.3168          0.99244         -36.674
532600000               0.991788        -36.8583      0.000372776         15.7547      0.000373367         15.7456         0.992333        -36.8867
535200000               0.991693        -37.0708      0.000371023         15.1917      0.000371622         15.1813         0.992225        -37.0999
537800000               0.991598        -37.2839      0.000369244         14.6355      0.000369849         14.6237         0.992117        -37.3136
540400000               0.991503        -37.4974      0.000367439         14.0862       0.00036805          14.073         0.992009        -37.5279
543000000               0.991408        -37.7116      0.000365611         13.5438      0.000366225         13.5292           0.9919        -37.7427
545600000               0.991313        -37.9262      0.000363759         13.0081      0.000364376         12.9922         0.991791         -37.958
548200000               0.991218        -38.1415      0.000361886         12.4793      0.000362505         12.4621         0.991681        -38.1738
550800000               0.991122        -38.3572      0.000359992         11.9573      0.000360611         11.9389         0.991571        -38.3902
553400000               0.991027        -38.5736      0.000358079         11.4422      0.000358696         11.4225         0.991461        -38.6072
556000000               0.990932        -38.7905      0.000356147         10.9338      0.000356762         10.9129          0.99135        -38.8247
558600000               0.990836         -39.008      0.000354197         10.4322      0.000354809         10.4102         0.991239        -39.0427
561200000               0.990741         -39.226      0.000352232         9.93731      0.000352838         9.91433         0.991127        -39.2614
563800000               0.990645        -39.4446      0.000350251         9.44918      0.000350851         9.42527         0.991015        -39.4806
566400000                0.99055        -39.6639      0.000348255         8.96775      0.000348848         8.94302         0.990903        -39.7003
569000000               0.990454        -39.8837      0.000346247           8.493      0.000346831         8.46754         0.990791        -39.9207
571600000               0.990358        -40.1041      0.000344226          8.0249      0.000344801         7.99883         0.990678        -40.1416
574200000               0.990263        -40.3251      0.000342194          7.5634      0.000342759         7.53685         0.990564        -40.3632
576800000               0.990167        -40.5468      0.000340152         7.10848      0.000340705         7.08159         0.990451        -40.5853
579400000               0.990072         -40.769        0.0003381         6.66009       0.00033864           6.633         0.990337         -40.808
582000000               0.989976        -40.9919      0.000336041          6.2182      0.000336567         6.19107         0.990223        -41.0314
584600000               0.989881        -41.2154      0.000333973         5.78276      0.000334485         5.75574         0.990108        -41.2553
587200000               0.989786        -41.4396        0.0003319         5.35372      0.000332396           5.327         0.989994        -41.4799
589800000                0.98969        -41.6644       0.00032982         4.93104      0.000330301         4.90478         0.989879        -41.7051
592400000               0.989595        -41.8898      0.000327736         4.51465        0.0003282         4.48905         0.989763        -41.9309
595000000                 0.9895        -42.1159      0.000325648         4.10451      0.000326094         4.07977         0.989648        -42.1574
597600000               0.989405        -42.3426      0.000323557         3.70054      0.000323985         3.67687         0.989532        -42.3845
600200000               0.989309          -42.57      0.000321463          3.3027      0.000321873          3.2803         0.989416        -42.6123
602800000               0.989214        -42.7981      0.000319368         2.91092      0.000319759         2.89002         0.989299        -42.8407
605400000               0.989119        -43.0269      0.000317272         2.52513      0.000317643         2.50594         0.989183        -43.0697
608000000               0.989024        -43.2564      0.000315176         2.14525      0.000315528         2.12802         0.989066        -43.2995
610600000               0.988929        -43.4865      0.000313081         1.77122      0.000313412         1.75619         0.988949        -43.5299
613200000               0.988835        -43.7173      0.000310987         1.40296      0.000311298         1.39036         0.988831         -43.761
615800000                0.98874        -43.9489      0.000308896         1.04038      0.000309186         1.03048         0.988713        -43.9927
618400000               0.988645        -44.1812      0.000306807        0.683406      0.000307076        0.676448         0.988596        -44.2252
621000000               0.988551        -44.4141      0.000304721        0.331951       0.00030497        0.328199         0.988478        -44.4584
623600000               0.988456        -44.6479      0.000302639       -0.014076      0.000302867      -0.0143583         0.988359        -44.6922
626200000               0.988362        -44.8823      0.000300561       -0.354767      0.000300769       -0.351312         0.988241        -44.9268
628800000               0.988267        -45.1175      0.000298489       -0.690218      0.000298676       -0.682755         0.988122        -45.1621
631400000               0.988173        -45.3534      0.000296422        -1.02053      0.000296589        -1.00878         0.988003        -45.3981
634000000               0.988079        -45.5901      0.000294361         -1.3458      0.000294508         -1.3295         0.987884        -45.6349
636600000               0.987984        -45.8275      0.000292306        -1.66613      0.000292434          -1.645         0.987764        -45.8724
639200000                0.98789        -46.0658      0.000290259        -1.98165      0.000290367         -1.9554         0.987645        -46.1106
641800000               0.987796        -46.3048      0.000288218        -2.29244      0.000288308         -2.2608         0.987525        -46.3496
644400000               0.987702        -46.5445      0.000286186        -2.59864      0.000286257        -2.56133         0.987405        -46.5894
647000000               0.987608        -46.7851      0.000284162        -2.90036      0.000284215         -2.8571         0.987284        -46.8299
649600000               0.987515        -47.0265      0.000282146        -3.19772      0.000282182        -3.14824         0.987164        -47.0712
652200000               0.987421        -47.2686      0.000280139        -3.49085      0.000280159        -3.43486         0.987043        -47.3132
654800000               0.987327        -47.5116      0.000278141        -3.77988      0.000278145        -3.71711         0.986922        -47.5561
657400000               0.987233        -47.7554      0.000276152        -4.06493      0.000276142        -3.99511         0.986801        -47.7997
660000000                0.98714        -48.0001      0.000274173        -4.34614      0.000274149          -4.269         0.986679        -48.0442
662600000               0.987046        -48.2456      0.000272204        -4.62365      0.000272166        -4.53893         0.986558        -48.2895
665200000               0.986952        -48.4919      0.000270245         -4.8976      0.000270195        -4.80504         0.986436        -48.5355
667800000               0.986859        -48.7391      0.000268296        -5.16814      0.000268235        -5.06748         0.986314        -48.7824
670400000               0.986765        -48.9871      0.000266358        -5.43542      0.000266286        -5.32641         0.986192        -49.0302
673000000               0.986671         -49.236       0.00026443        -5.69958      0.000264349        -5.58197         0.986069        -49.2788
675600000               0.986578        -49.4858      0.000262513        -5.96078      0.000262423        -5.83434         0.985946        -49.5282
678200000               0.986484        -49.7365      0.000260607        -6.21919       0.00026051        -6.08368         0.985823        -49.7785
680800000                0.98639        -49.9881      0.000258712        -6.47496      0.000258608        -6.33016           0.9857        -50.0296
683400000               0.986296        -50.2406      0.000256827        -6.72826      0.000256718        -6.57395         0.985576        -50.2816
686000000               0.986203         -50.494      0.000254954        -6.97925       0.00025484        -6.81523         0.985452        -50.5345
688600000               0.986109        -50.7483      0.000253091        -7.22812      0.000252975        -7.05417         0.985328        -50.7883
691200000               0.986015        -51.0035       0.00025124        -7.47503      0.000251121        -7.29097         0.985203         -51.043
693800000                0.98592        -51.2597      0.000249399        -7.72017       0.00024928        -7.52581         0.985079        -51.2986
696400000               0.985826        -51.5169      0.000247569        -7.96371       0.00024745        -7.75889         0.984953        -51.5551
699000000               0.985732         -51.775       0.00024575        -8.20585      0.000245633         -7.9904         0.984828        -51.8125
701600000               0.985637         -52.034      0.000243941        -8.44678      0.000243827        -8.22054         0.984702        -52.0709
704200000               0.985542        -52.2941      0.000242143        -8.68668      0.000242033        -8.44951         0.984576        -52.3302
706800000               0.985447        -52.5551      0.000240356        -8.92576      0.000240251        -8.67752          0.98445        -52.5904
709400000               0.985352        -52.8171      0.000238579        -9.16421       0.00023848        -8.90479         0.984323        -52.8517
712000000               0.985256        -53.0801      0.000236812        -9.40224      0.000236721        -9.13153         0.984195        -53.1138
714600000               0.985161        -53.3441      0.000235054        -9.64006      0.000234972        -9.35795         0.984068         -53.377
717200000               0.985065        -53.6092      0.000233307        -9.87788      0.000233235        -9.58429          0.98394        -53.6411
719800000               0.984968        -53.8753      0.000231569        -10.1159      0.000231508        -9.81076         0.983811        -53.9062
722400000               0.984872        -54.1424       0.00022984        -10.3544      0.000229791        -10.0376         0.983682        -54.1724
725000000               0.984774        -54.4106       0.00022812        -10.5935      0.000228085         -10.265         0.983553        -54.4395
727600000               0.984677        -54.6799      0.000226409        -10.8335      0.000226388        -10.4933         0.983423        -54.7077
730200000               0.984579        -54.9502      0.000224706        -11.0746      0.000224701        -10.7227         0.983292        -54.9769
732800000               0.984481        -55.2216      0.000223012        -11.3171      0.000223022        -10.9534         0.983162        -55.2471
735400000               0.984382        -55.4941      0.000221325        -11.5611      0.000221353        -11.1857          0.98303        -55.5184
738000000               0.984282        -55.7677      0.000219645         -11.807      0.000219692        -11.4198         0.982898        -55.7907
740600000               0.984182        -56.0424      0.000217973         -12.055      0.000218039         -11.656         0.982765        -56.0641
743200000               0.984082        -56.3182      0.000216307        -12.3052      0.000216393        -11.8946         0.982632        -56.3386
745800000               0.983981        -56.5952      0.000214647        -12.5581      0.000214755        -12.1357         0.982498        -56.6142
748400000               0.983879        -56.8733      0.000212994        -12.8138      0.000213124        -12.3798         0.982363        -56.8909
751000000               0.983776        -57.1525      0.000211346        -13.0727      0.000211499        -12.6271         0.982228        -57.1687
753600000               0.983673         -57.433      0.000209703        -13.3349      0.000209879        -12.8778         0.982092        -57.4476
756200000               0.983569        -57.7146      0.000208065        -13.6008      0.000208266        -13.1323         0.981955        -57.7277
758800000               0.983464        -57.9974      0.000206431        -13.8706      0.000206657        -13.3907         0.981817        -58.0089
761400000               0.983358        -58.2814        0.0002048        -14.1447      0.000205052        -13.6536         0.981679        -58.2912
764000000               0.983251        -58.5666      0.000203174        -14.4233      0.000203452         -13.921          0.98154        -58.5747
766600000               0.983144         -58.853       0.00020155        -14.7067      0.000201855        -14.1934         0.981399        -58.8594
769200000               0.983035        -59.1406      0.000199928        -14.9953       0.00020026        -14.4711         0.981258        -59.1452
771800000               0.982925        -59.4295      0.000198308        -15.2893      0.000198668        -14.7544         0.981116        -59.4323
774400000               0.982814        -59.7197       0.00019669        -15.5891      0.000197078        -15.0435         0.980973        -59.7206
777000000               0.982702        -60.0111      0.000195073        -15.8951       0.00019549        -15.3389         0.980829          -60.01
779600000               0.982589        -60.3038      0.000193456        -16.2074      0.000193902         -15.641         0.980684        -60.3008
782200000               0.982475        -60.5978      0.000191839        -16.5266      0.000192314        -15.9499         0.980537        -60.5927
784800000               0.982359        -60.8931      0.000190222         -16.853      0.000190726        -16.2662          0.98039        -60.8859
787400000               0.982241        -61.1897      0.000188603        -17.1869      0.000189137        -16.5902         0.980241        -61.1804
790000000               0.982123        -61.4876      0.000186983        -17.5286      0.000187546        -16.9223         0.980091        -61.4761
792600000               0.982002        -61.7868      0.000185361        -17.8787      0.000185954        -17.2628          0.97994        -61.7731
795200000               0.981881        -62.0874      0.000183736        -18.2375      0.000184359        -17.6122         0.979787        -62.0714
797800000               0.981757        -62.3894      0.000182109        -18.6055      0.000182761        -17.9709         0.979633        -62.3711
800400000               0.981632        -62.6927      0.000180478         -18.983      0.000181159        -18.3393         0.979478         -62.672
803000000               0.981505        -62.9974      0.000178842        -19.3705      0.000179553        -18.7179         0.979321        -62.9743
805600000               0.981376        -63.3036      0.000177203        -19.7685      0.000177942        -19.1071         0.979162        -63.2779
808200000               0.981245        -63.6111      0.000175558        -20.1774      0.000176326        -19.5074         0.979002        -63.5829
810800000               0.981112          -63.92      0.000173908        -20.5978      0.000174704        -19.9194          0.97884        -63.8892
813400000               0.980977        -64.2304      0.000172252        -21.0302      0.000173077        -20.3435         0.978676         -64.197
816000000                0.98084        -64.5422       0.00017059         -21.475      0.000171442        -20.7802         0.978511        -64.5061
818600000               0.980701        -64.8555      0.000168921         -21.933        0.0001698        -21.2302         0.978343        -64.8166
821200000               0.980559        -65.1702      0.000167246        -22.4047       0.00016815         -21.694         0.978174        -65.1286
823800000               0.980415        -65.4865      0.000165562        -22.8906      0.000166493        -22.1722         0.978003         -65.442
826400000               0.980268        -65.8042      0.000163871        -23.3915      0.000164827        -22.6655         0.977829        -65.7568
829000000               0.980119        -66.1235      0.000162172         -23.908      0.000163152        -23.1745         0.977654        -66.0731
831600000               0.979967        -66.4442      0.000160464        -24.4409      0.000161468           -23.7         0.977476        -66.3908
834200000               0.979812        -66.7665      0.000158748        -24.9908      0.000159774        -24.2426         0.977296          -66.71
836800000               0.979654        -67.0904      0.000157023        -25.5586      0.000158071        -24.8031         0.977114        -67.0308
839400000               0.979493        -67.4158      0.000155288         -26.145      0.000156357        -25.3824         0.976929         -67.353
842000000                0.97933        -67.7427      0.000153545         -26.751      0.000154634        -25.9812         0.976741        -67.6767
844600000               0.979163        -68.0713      0.000151792        -27.3775        0.0001529        -26.6006         0.976551         -68.002
847200000               0.978992        -68.4015       0.00015003        -28.0254      0.000151155        -27.2414         0.976359        -68.3289
849800000               0.978819        -68.7332      0.000148258        -28.6958      0.000149401        -27.9047         0.976163        -68.6573
852400000               0.978642        -69.0666      0.000146478        -29.3897      0.000147635        -28.5915         0.975965        -68.9872
855000000               0.978461        -69.4017      0.000144688        -30.1082       0.00014586        -29.3029         0.975763        -69.3188
857600000               0.978276        -69.7384       0.00014289        -30.8527      0.000144075        -30.0401         0.975559        -69.6519
860200000               0.978088        -70.0767      0.000141083        -31.6243      0.000142279        -30.8044         0.975351        -69.9867
862800000               0.977895        -70.4168      0.000139268        -32.4244      0.000140474        -31.5971          0.97514        -70.3231
865400000               0.977699        -70.7585      0.000137445        -33.2544      0.000138661        -32.4196         0.974926        -70.6611
868000000               0.977498         -71.102      0.000135616        -34.1159      0.000136839        -33.2734         0.974708        -71.0008
870600000               0.977293        -71.4471       0.00013378        -35.0104      0.000135009        -34.1602         0.974487        -71.3422
873200000               0.977083         -71.794       0.00013194        -35.9398      0.000133173        -35.0814         0.974262        -71.6852
875800000               0.976869        -72.1426      0.000130095        -36.9057      0.000131331        -36.0391         0.974033          -72.03
878400000                0.97665         -72.493      0.000128247        -37.9101      0.000129484         -37.035         0.973801        -72.3764
881000000               0.976426        -72.8452      0.000126398         -38.955      0.000127634        -38.0711         0.973564        -72.7246
883600000               0.976197        -73.1992       0.00012455        -40.0426      0.000125783        -39.1496         0.973323        -73.0745
886200000               0.975963        -73.5549      0.000122703         -41.175      0.000123931        -40.2727         0.973078        -73.4262
888800000               0.975724        -73.9125       0.00012086        -42.3548      0.000122082        -41.4427         0.972829        -73.7796
891400000               0.975479        -74.2719      0.000119024        -43.5843      0.000120238        -42.6622         0.972575        -74.1348
894000000               0.975228        -74.6331      0.000117197        -44.8661        0.0001184        -43.9336         0.972316        -74.4918
896600000               0.974972        -74.9962      0.000115382        -46.2031      0.000116573        -45.2598         0.972053        -74.8507
899200000                0.97471        -75.3611      0.000113583         -47.598      0.000114758        -46.6436         0.971785        -75.2113
901800000               0.974442         -75.728      0.000111802        -49.0537      0.000112961        -48.0878         0.971511        -75.5738
904400000               0.974167        -76.0967      0.000110044        -50.5733      0.000111184        -49.5956         0.971233        -75.9381
907000000               0.973886        -76.4673      0.000108314        -52.1599      0.000109433          -51.17         0.970949        -76.3043
909600000               0.973599        -76.8399      0.000106617        -53.8164      0.000107711        -52.8142          0.97066        -76.6723
912200000               0.973305        -77.2144      0.000104957        -55.5459      0.000106025        -54.5312         0.970365        -77.0423
914800000               0.973004        -77.5908      0.000103341        -57.3516       0.00010438        -56.3241         0.970065        -77.4142