##File Type: Far field
##File Format: 5
##Date: 2019-12-13 17:00:46
** File exported by POSTFEKO version 2018.1-327316 (x64)

#Request Name: FarField1
#Frequency: 3.00000000E+09
#Coordinate System: Spherical
#No. of Theta Samples: 37
#No. of Phi Samples: 73
#Result Type: Directivity
#No. of Header Lines: 1
#                 "Theta"           "Phi"             "Re(Etheta)"      "Im(Etheta)"      "Re(Ephi)"        "Im(Ephi)"        "Directivity(Theta)""Directivity(Phi)""Directivity(Total)"
                   0.00000000E+00    0.00000000E+00    2.91512024E-05   -3.26644142E-07    5.16552038E-01   -2.12108133E-01   -7.88014283E+01    6.84387907E+00    6.84387908E+00   
                   5.00000000E+00    0.00000000E+00    2.92416865E-05    1.46054275E-07    5.20275777E-01   -2.05965071E-01   -7.87749464E+01    6.86184545E+00    6.86184547E+00   
                   1.00000000E+01    0.00000000E+00    2.94500677E-05    1.60062659E-06    5.30828200E-01   -1.87234552E-01   -7.87005670E+01    6.91323333E+00    6.91323334E+00   
                   1.50000000E+01    0.00000000E+00    2.96261016E-05    4.00115275E-06    5.46327000E-01   -1.55147202E-01   -7.85831120E+01    6.99078453E+00    6.99078454E+00   
                   2.00000000E+01    0.00000000E+00    2.95330759E-05    7.25564300E-06    5.63584652E-01   -1.08858758E-01   -7.84344045E+01    7.08315969E+00    7.08315971E+00   
                   2.50000000E+01    0.00000000E+00    2.88770338E-05    1.11781262E-05    5.78149876E-01   -4.80621732E-02   -7.82776707E+01    7.17561551E+00    7.17561552E+00   
                   3.00000000E+01    0.00000000E+00    2.73582050E-05    1.54549318E-05    5.84564565E-01    2.62701577E-02   -7.81504960E+01    7.25030872E+00    7.25030874E+00   
                   3.50000000E+01    0.00000000E+00    2.47451228E-05    1.96332475E-05    5.76953819E-01    1.11169152E-01   -7.81047311E+01    7.28603619E+00    7.28603620E+00   
                   4.00000000E+01    0.00000000E+00    2.09611819E-05    2.31500717E-05    5.49991985E-01    2.01194619E-01   -7.82037343E+01    7.25746408E+00    7.25746410E+00   
                   4.50000000E+01    0.00000000E+00    1.61606446E-05    2.54125731E-05    5.00157621E-01    2.88445030E-01   -7.85191963E+01    7.13400812E+00    7.13400813E+00   
                   5.00000000E+01    0.00000000E+00    1.07620012E-05    2.59251799E-05    4.27035162E-01    3.63240097E-01   -7.91301957E+01    6.87837389E+00    6.87837390E+00   
                   5.50000000E+01    0.00000000E+00    5.40805315E-06    2.44368838E-05    3.34295726E-01    4.15517575E-01   -8.01265278E+01    6.44432247E+00    6.44432248E+00   
                   6.00000000E+01    0.00000000E+00    8.39125392E-07    2.10617548E-05    2.29959100E-01    4.36763675E-01   -8.16183238E+01    5.77244872E+00    5.77244873E+00   
                   6.50000000E+01    0.00000000E+00   -2.30258615E-06    1.63177841E-05    1.25650940E-01    4.22063626E-01   -8.37562534E+01    4.78125428E+00    4.78125428E+00   
                   7.00000000E+01    0.00000000E+00   -3.68325167E-06    1.10440631E-05    3.48231376E-02    3.71708166E-01   -8.67745028E+01    3.34688945E+00    3.34688946E+00   
                   7.50000000E+01    0.00000000E+00   -3.42432970E-06    6.19587654E-06   -2.97629517E-02    2.91808632E-01   -9.10954326E+01    1.25180562E+00    1.25180563E+00   
                   8.00000000E+01    0.00000000E+00   -2.11466065E-06    2.56990994E-06   -5.86968242E-02    1.93592144E-01   -9.76511847E+01   -1.97540343E+00   -1.97540343E+00   
                   8.50000000E+01    0.00000000E+00   -6.58939238E-07    5.53744755E-07   -4.79981193E-02    9.14225818E-02   -1.09397893E+02   -7.81675378E+00   -7.81675378E+00   
                   9.00000000E+01    0.00000000E+00    0.00000000E+00    0.00000000E+00    0.00000000E+00    0.00000000E+00   -1.00000000E+03   -1.00000000E+03   -1.00000000E+03   
                   9.50000000E+01    0.00000000E+00    0.00000000E+00    0.00000000E+00    0.00000000E+00    0.00000000E+00   -1.00000000E+03   -1.00000000E+03   -1.00000000E+03   
                   1.00000000E+02    0.00000000E+00    0.00000000E+00    0.00000000E+00    0.00000000E+00    0.00000000E+00   -1.00000000E+03   -1.00000000E+03   -1.00000000E+03   
                   1.05000000E+02    0.00000000E+00    0.00000000E+00    0.00000000E+00    0.00000000E+00    0.00000000E+00   -1.00000000E+03   -1.00000000E+03   -1.00000000E+03   
                   1.10000000E+02    0.00000000E+00    0.00000000E+00    0.00000000E+00    0.00000000E+00    0.00000000E+00   -1.00000000E+03   -1.00000000E+03   -1.00000000E+03   
                   1.15000000E+02    0.00000000E+00    0.00000000E+00    0.00000000E+00    0.00000000E+00    0.00000000E+00   -1.00000000E+03   -1.00000000E+03   -1.00000000E+03   
                   1.20000000E+02    0.00000000E+00    0.00000000E+00    0.00000000E+00    0.00000000E+00    0.00000000E+00   -1.00000000E+03   -1.00000000E+03   -1.00000000E+03   
                   1.25000000E+02    0.00000000E+00    0.00000000E+00    0.00000000E+00    0.00000000E+00    0.00000000E+00   -1.00000000E+03   -1.00000000E+03   -1.00000000E+03   
                   1.30000000E+02    0.00000000E+00    0.00000000E+00    0.00000000E+00    0.00000000E+00    0.00000000E+00   -1.00000000E+03   -1.00000000E+03   -1.00000000E+03   
                   1.35000000E+02    0.00000000E+00    0.00000000E+00    0.00000000E+00    0.00000000E+00    0.00000000E+00   -1.00000000E+03   -1.00000000E+03   -1.00000000E+03   
                   1.40000000E+02    0.00000000E+00    0.00000000E+00    0.00000000E+00    0.00000000E+00    0.00000000E+00   -1.00000000E+03   -1.00000000E+03   -1.00000000E+03   
                   1.45000000E+02    0.00000000E+00    0.00000000E+00    0.00000000E+00    0.00000000E+00    0.00000000E+00   -1.00000000E+03   -1.00000000E+03   -1.00000000E+03   
                   1.50000000E+02    0.00000000E+00    0.00000000E+00    0.00000000E+00    0.00000000E+00    0.00000000E+00   -1.00000000E+03   -1.00000000E+03   -1.00000000E+03   
                   1.55000000E+02    0.00000000E+00    0.00000000E+00    0.00000000E+00    0.00000000E+00    0.00000000E+00   -1.00000000E+03   -1.00000000E+03   -1.00000000E+03   
                   1.60000000E+02    0.00000000E+00    0.00000000E+00    0.00000000E+00    0.00000000E+00    0.00000000E+00   -1.00000000E+03   -1.00000000E+03   -1.00000000E+03   
                   1.65000000E+02    0.00000000E+00    0.00000000E+00    0.00000000E+00    0.00000000E+00    0.00000000E+00   -1.00000000E+03   -1.00000000E+03   -1.00000000E+03   
                   1.70000000E+02    0.00000000E+00    0.00000000E+00    0.00000000E+00    0.00000000E+00    0.00000000E+00   -1.00000000E+03   -1.00000000E+03   -1.00000000E+03   
                   1.75000000E+02    0.00000000E+00    0.00000000E+00    0.00000000E+00    0.00000000E+00    0.00000000E+00   -1.00000000E+03   -1.00000000E+03   -1.00000000E+03   
                   1.80000000E+02    0.00000000E+00    0.00000000E+00    0.00000000E+00    0.00000000E+00    0.00000000E+00   -1.00000000E+03   -1.00000000E+03   -1.00000000E+03   
                   0.00000000E+00    5.00000000E+00    4.50495168E-02   -1.84867673E-02    5.14583861E-01   -2.11300969E-01   -1.43453854E+01    6.81072672E+00    6.84387908E+00   
                   5.00000000E+00    5.00000000E+00    4.52541402E-02   -1.79084774E-02    5.18270100E-01   -2.05196654E-01   -1.43500927E+01    6.82844316E+00    6.86142543E+00   
                   1.00000000E+01    5.00000000E+00    4.57998318E-02   -1.61658534E-02    5.28713883E-01   -1.86585273E-01   -1.43678984E+01    6.87906522E+00    6.91153382E+00   
                   1.50000000E+01    5.00000000E+00    4.64848550E-02   -1.32502066E-02    5.44044997E-01   -1.54705190E-01   -1.44096130E+01    6.95529260E+00    6.98689446E+00   
                   2.00000000E+01    5.00000000E+00    4.69859849E-02   -9.19223866E-03    5.61097504E-01   -1.08721938E-01   -1.44926158E+01    7.04573512E+00    7.07610408E+00   
                   2.50000000E+01    5.00000000E+00    4.68892894E-02   -4.11883440E-03    5.75452237E-01   -4.83357331E-02   -1.46402478E+01    7.13561597E+00    7.16437401E+00   
                   3.00000000E+01    5.00000000E+00    4.57494447E-02    1.69057334E-03    5.81693265E-01    2.54823195E-02   -1.48814602E+01    7.20710406E+00    7.23387040E+00   
                   3.50000000E+01    5.00000000E+00    4.31804844E-02    7.77126556E-03    5.73994600E-01    1.09779447E-01   -1.52509157E+01    7.23907526E+00    7.26348505E+00   
                   4.00000000E+01    5.00000000E+00    3.89670273E-02    1.34886387E-02    5.47079254E-01    1.99152038E-01   -1.57896621E+01    7.20634616E+00    7.22807799E+00   
                   4.50000000E+01    5.00000000E+00    3.31684214E-02    1.81181327E-02    4.97463788E-01    2.85757236E-01   -1.65465715E+01    7.07853758E+00    7.09734515E+00   
                   5.00000000E+01    5.00000000E+00    2.61765906E-02    2.09867845E-02    4.24747844E-01    3.59991826E-01   -1.75810345E+01    6.81858177E+00    6.83432288E+00   
                   5.50000000E+01    5.00000000E+00    1.86903261E-02    2.16470015E-02    3.32584196E-01    4.11878684E-01   -1.89679897E+01    6.38045075E+00    6.39310707E+00   
                   6.00000000E+01    5.00000000E+00    1.15891942E-02    2.00296110E-02    2.28935274E-01    4.32980883E-01   -2.08075510E+01    5.70490623E+00    5.71459022E+00   
                   6.50000000E+01    5.00000000E+00    5.72567275E-03    1.65156425E-02    1.25333638E-01    4.18433019E-01   -2.32442834E+01    4.71056029E+00    4.71750977E+00   
                   7.00000000E+01    5.00000000E+00    1.69162194E-03    1.18836271E-02    3.51159406E-02    3.68530534E-01   -2.65090004E+01    3.27362030E+00    3.27818375E+00   
                   7.50000000E+01    5.00000000E+00   -3.63163881E-04    7.12973291E-03   -2.90714230E-02    2.89335444E-01   -3.10223845E+01    1.17655424E+00    1.17917097E+00   
                   8.00000000E+01    5.00000000E+00   -7.90721821E-04    3.20738423E-03   -5.79061841E-02    1.91974464E-01   -3.77158388E+01   -2.05205168E+00   -2.05087313E+00   
                   8.50000000E+01    5.00000000E+00   -3.52503885E-04    7.69327652E-04   -4.74461985E-02    9.06766138E-02   -4.95452206E+01   -7.89423028E+00   -7.89393334E+00   
                   9.00000000E+01    5.00000000E+00    0.00000000E+00    0.00000000E+00    0.00000000E+00    0.00000000E+00   -1.00000000E+03   -1.00000000E+03   -1.00000000E+03   
                   9.50000000E+01    5.00000000E+00    0.00000000E+00    0.00000000E+00    0.00000000E+00    0.00000000E+00   -1.00000000E+03   -1.00000000E+03   -1.00000000E+03   
                   1.00000000E+02    5.00000000E+00    0.00000000E+00    0.00000000E+00    0.00000000E+00    0.00000000E+00   -1.00000000E+03   -1.00000000E+03   -1.00000000E+03   
                   1.05000000E+02    5.00000000E+00    0.00000000E+00    0.00000000E+00    0.00000000E+00    0.00000000E+00   -1.00000000E+03   -1.00000000E+03   -1.00000000E+03   
                   1.10000000E+02    5.00000000E+00    0.00000000E+00    0.00000000E+00    0.00000000E+00    0.00000000E+00   -1.00000000E+03   -1.00000000E+03   -1.00000000E+03   
                   1.15000000E+02    5.00000000E+00    0.00000000E+00    0.00000000E+00    0.00000000E+00    0.00000000E+00   -1.00000000E+03   -1.00000000E+03   -1.00000000E+03   
                   1.20000000E+02    5.00000000E+00    0.00000000E+00    0.00000000E+00    0.00000000E+00    0.00000000E+00   -1.00000000E+03   -1.00000000E+03   -1.00000000E+03   
                   1.25000000E+02    5.00000000E+00    0.00000000E+00    0.00000000E+00    0.00000000E+00    0.00000000E+00   -1.00000000E+03   -1.00000000E+03   -1.00000000E+03   
                   1.30000000E+02    5.00000000E+00    0.00000000E+00    0.00000000E+00    0.00000000E+00    0.00000000E+00   -1.00000000E+03   -1.00000000E+03   -1.00000000E+03   
                   1.35000000E+02    5.00000000E+00    0.00000000E+00    0.00000000E+00    0.00000000E+00    0.00000000E+00   -1.00000000E+03   -1.00000000E+03   -1.00000000E+03   
                   1.40000000E+02    5.00000000E+00    0.00000000E+00    0.00000000E+00    0.00000000E+00    0.00000000E+00   -1.00000000E+03   -1.00000000E+03   -1.00000000E+03   
                   1.45000000E+02    5.00000000E+00    0.00000000E+00    0.00000000E+00    0.00000000E+00    0.00000000E+00   -1.00000000E+03   -1.00000000E+03   -1.00000000E+03   
                   1.50000000E+02    5.00000000E+00    0.00000000E+00    0.00000000E+00    0.00000000E+00    0.00000000E+00   -1.00000000E+03   -1.00000000E+03   -1.00000000E+03   
                   1.55000000E+02    5.00000000E+00    0.00000000E+00    0.00000000E+00    0.00000000E+00    0.00000000E+00   -1.00000000E+03   -1.00000000E+03   -1.00000000E+03   
                   1.60000000E+02    5.00000000E+00    0.00000000E+00    0.00000000E+00    0.00000000E+00    0.00000000E+00   -1.00000000E+03   -1.00000000E+03   -1.00000000E+03   
                   1.65000000E+02    5.00000000E+00    0.00000000E+00    0.00000000E+00    0.00000000E+00    0.00000000E+00   -1.00000000E+03   -1.00000000E+03   -1.00000000E+03   
                   1.70000000E+02    5.00000000E+00    0.00000000E+00    0.00000000E+00    0.00000000E+00    0.00000000E+00   -1.00000000E+03   -1.00000000E+03   -1.00000000E+03   
                   1.75000000E+02    5.00000000E+00    0.00000000E+00    0.00000000E+00    0.00000000E+00    0.00000000E+00   -1.00000000E+03   -1.00000000E+03   -1.00000000E+03   
                   1.80000000E+02    5.00000000E+00    0.00000000E+00    0.00000000E+00    0.00000000E+00    0.00000000E+00   -1.00000000E+03   -1.00000000E+03   -1.00000000E+03   
                   0.00000000E+00    1.00000000E+01    8.97270284E-02   -3.68325125E-02    5.08699390E-01   -2.08885677E-01   -8.36032681E+00    6.71083395E+00    6.84387908E+00   
                   5.00000000E+00    1.00000000E+01    9.01226400E-02   -3.56887289E-02    5.12275157E-01   -2.02896269E-01   -8.36577668E+00    6.72781066E+00    6.86018087E+00   
                   1.00000000E+01    1.00000000E+01    9.11751124E-02   -3.22425086E-02    5.22398954E-01   -1.84638168E-01   -8.38583495E+00    6.77616641E+00    6.90649847E+00   
                   1.50000000E+01    1.00000000E+01    9.24869953E-02   -2.64777995E-02    5.37236416E-01   -1.53372626E-01   -8.43137722E+00    6.84847649E+00    6.97536983E+00   
                   2.00000000E+01    1.00000000E+01    9.34219473E-02   -1.84567694E-02    5.53685536E-01   -1.08294146E-01   -8.51983824E+00    6.93319914E+00    7.05520093E+00   
                   2.50000000E+01    1.00000000E+01    9.31658552E-02   -8.43147496E-03    5.67422234E-01   -4.91243792E-02   -8.67454291E+00    7.01545366E+00    7.13106259E+00   
                   3.00000000E+01    1.00000000E+01    9.08440006E-02    3.04547940E-03    5.73155380E-01    2.31694965E-02   -8.92429983E+00    7.07743559E+00    7.18513533E+00   
                   3.50000000E+01    1.00000000E+01    8.56997775E-02    1.50569273E-02    5.65203647E-01    1.05683171E-01   -9.30347713E+00    7.09824196E+00    7.19657209E+00   
                   4.00000000E+01    1.00000000E+01    7.73132985E-02    2.63518885E-02    5.38433839E-01    1.93121551E-01   -9.85269359E+00    7.05312191E+00    7.14078410E+00   
                   4.50000000E+01    1.00000000E+01    6.58057025E-02    3.55031397E-02    4.89474596E-01    2.77815730E-01   -1.06203142E+01    6.91229572E+00    6.98827910E+00   
                   5.00000000E+01    1.00000000E+01    5.19522160E-02    4.11857453E-02    4.17969980E-01    3.50390871E-01   -1.16652194E+01    6.63936761E+00    6.70306721E+00   
                   5.50000000E+01    1.00000000E+01    3.71309563E-02    4.25186637E-02    3.27517739E-01    4.01121893E-01   -1.30619029E+01    6.18894450E+00    6.24024622E+00   
                   6.00000000E+01    1.00000000E+01    2.30746293E-02    3.93654003E-02    2.25909758E-01    4.21799196E-01   -1.49101430E+01    5.50229926E+00    5.54161558E+00   
                   6.50000000E+01    1.00000000E+01    1.14618382E-02    3.24748658E-02    1.24402420E-01    4.07702974E-01   -1.73542904E+01    4.49839070E+00    4.52664618E+00   
                   7.00000000E+01    1.00000000E+01    3.45825937E-03    2.33777043E-02    3.59910534E-02    3.59141782E-01   -2.06250531E+01    3.05361363E+00    3.07219118E+00   
                   7.50000000E+01    1.00000000E+01   -6.39710160E-04    1.40329819E-02   -2.70178443E-02    2.82030740E-01   -2.51430880E+01    9.50500044E-01    9.61163359E-01   
                   8.00000000E+01    1.00000000E+01   -1.52234968E-03    6.31691609E-03   -5.55621789E-02    1.87198731E-01   -3.18398202E+01   -2.28237571E+00   -2.27756954E+00   
                   8.50000000E+01    1.00000000E+01   -6.85414612E-04    1.51646642E-03   -4.58114943E-02    8.84755695E-02   -4.36711465E+01   -8.12708934E+00   -8.12587785E+00   
                   9.00000000E+01    1.00000000E+01    0.00000000E+00    0.00000000E+00    0.00000000E+00    0.00000000E+00   -1.00000000E+03   -1.00000000E+03   -1.00000000E+03   
                   9.50000000E+01    1.00000000E+01    0.00000000E+00    0.00000000E+00    0.00000000E+00    0.00000000E+00   -1.00000000E+03   -1.00000000E+03   -1.00000000E+03   
                   1.00000000E+02    1.00000000E+01    0.00000000E+00    0.00000000E+00    0.00000000E+00    0.00000000E+00   -1.00000000E+03   -1.00000000E+03   -1.00000000E+03   
                   1.05000000E+02    1.00000000E+01    0.00000000E+00    0.00000000E+00    0.00000000E+00    0.00000000E+00   -1.00000000E+03   -1.00000000E+03   -1.00000000E+03   
                   1.10000000E+02    1.00000000E+01    0.00000000E+00    0.00000000E+00    0.00000000E+00    0.00000000E+00   -1.00000000E+03   -1.00000000E+03   -1.00000000E+03   
                   1.15000000E+02    1.00000000E+01    0.00000000E+00    0.00000000E+00    0.00000000E+00    0.00000000E+00   -1.00000000E+03   -1.00000000E+03   -1.00000000E+03   
                   1.20000000E+02    1.00000000E+01    0.00000000E+00    0.00000000E+00    0.00000000E+00    0.00000000E+00   -1.00000000E+03   -1.00000000E+03   -1.00000000E+03   
                   1.25000000E+02    1.00000000E+01    0.00000000E+00    0.00000000E+00    0.00000000E+00    0.00000000E+00   -1.00000000E+03   -1.00000000E+03   -1.00000000E+03   
                   1.30000000E+02    1.00000000E+01    0.00000000E+00    0.00000000E+00    0.00000000E+00    0.00000000E+00   -1.00000000E+03   -1.00000000E+03   -1.00000000E+03   
                   1.35000000E+02    1.00000000E+01    0.00000000E+00    0.00000000E+00    0.00000000E+00    0.00000000E+00   -1.00000000E+03   -1.00000000E+03   -1.00000000E+03   
                   1.40000000E+02    1.00000000E+01    0.00000000E+00    0.00000000E+00    0.00000000E+00    0.00000000E+00   -1.00000000E+03   -1.00000000E+03   -1.00000000E+03   
                   1.45000000E+02    1.00000000E+01    0.00000000E+00    0.00000000E+00    0.00000000E+00    0.00000000E+00   -1.00000000E+03   -1.00000000E+03   -1.00000000E+03   
                   1.50000000E+02    1.00000000E+01    0.00000000E+00    0.00000000E+00    0.00000000E+00    0.00000000E+00   -1.00000000E+03   -1.00000000E+03   -1.00000000E+03   
                   1.55000000E+02    1.00000000E+01    0.00000000E+00    0.00000000E+00    0.00000000E+00    0.00000000E+00   -1.00000000E+03   -1.00000000E+03   -1.00000000E+03   
                   1.60000000E+02    1.00000000E+01    0.00000000E+00    0.00000000E+00    0.00000000E+00    0.00000000E+00   -1.00000000E+03   -1.00000000E+03   -1.00000000E+03   
                   1.65000000E+02    1.00000000E+01    0.00000000E+00    0.00000000E+00    0.00000000E+00    0.00000000E+00   -1.00000000E+03   -1.00000000E+03   -1.00000000E+03   
                   1.70000000E+02    1.00000000E+01    0.00000000E+00    0.00000000E+00    0.00000000E+00    0.00000000E+00   -1.00000000E+03   -1.00000000E+03   -1.00000000E+03   
                   1.75000000E+02    1.00000000E+01    0.00000000E+00    0.00000000E+00    0.00000000E+00    0.00000000E+00   -1.00000000E+03   -1.00000000E+03   -1.00000000E+03   
                   1.80000000E+02    1.00000000E+01    0.00000000E+00    0.00000000E+00    0.00000000E+00    0.00000000E+00   -1.00000000E+03   -1.00000000E+03   -1.00000000E+03   
                   0.00000000E+00    1.50000000E+01    1.33721663E-01   -5.48979400E-02    4.98943409E-01   -2.04880639E-01   -4.89462380E+00    6.54264172E+00    6.84387908E+00   
                   5.00000000E+00    1.50000000E+01    1.34282099E-01   -5.32126820E-02    5.02341216E-01   -1.99078363E-01   -4.90127892E+00    6.55841151E+00    6.85814975E+00   
                   1.00000000E+01    1.50000000E+01    1.35766604E-01   -4.81361101E-02    5.11949720E-01   -1.81395543E-01   -4.92499409E+00    6.60307087E+00    6.89828261E+00   
                   1.50000000E+01    1.50000000E+01    1.37593397E-01   -3.96475058E-02    5.25992819E-01   -1.51130599E-01   -4.97674517E+00    6.66899432E+00    6.95657005E+00   
                   2.00000000E+01    1.50000000E+01    1.38832174E-01   -2.78422454E-02    5.41472359E-01   -1.07525060E-01   -5.07405390E+00    6.74439044E+00    7.02110419E+00   
                   2.50000000E+01    1.50000000E+01    1.38294776E-01   -1.30946707E-02    5.54218626E-01   -5.03353356E-02   -5.24022409E+00    6.81419585E+00    7.07670870E+00   
                   3.00000000E+01    1.50000000E+01    1.34707480E-01    3.78095217E-03    5.59142984E-01    1.94778858E-02   -5.50384877E+00    6.86062148E+00    7.10554668E+00   
                   3.50000000E+01    1.50000000E+01    1.26972427E-01    2.14380112E-02    5.50798680E-01    9.90892041E-02   -5.89884253E+00    6.86308476E+00    7.08713273E+00   
                   4.00000000E+01    1.50000000E+01    1.14486263E-01    3.80436366E-02    5.24285499E-01    1.83380097E-01   -6.46515321E+00    6.79749853E+00    6.99770151E+00   
                   4.50000000E+01    1.50000000E+01    9.74369663E-02    5.15096391E-02    4.76413324E-01    2.64964638E-01   -7.25033933E+00    6.63503303E+00    6.80902077E+00   
                   5.00000000E+01    1.50000000E+01    7.69669967E-02    5.98993221E-02    4.06897315E-01    3.34839438E-01   -8.31245432E+00    6.34038791E+00    6.48666148E+00   
                   5.50000000E+01    1.50000000E+01    5.50969260E-02    6.19255419E-02    3.19244548E-01    3.83689216E-01   -9.72525501E+00    5.86923560E+00    5.98738040E+00   
                   6.00000000E+01    1.50000000E+01    3.43622635E-02    5.73884687E-02    2.20968461E-01    4.03673690E-01   -1.15879477E+01    5.16373632E+00    5.25453263E+00   
                   6.50000000E+01    1.50000000E+01    1.72173717E-02    4.73802272E-02    1.22875568E-01    3.90309082E-01   -1.40445030E+01    4.14347833E+00    4.20889841E+00   
                   7.00000000E+01    1.50000000E+01    5.36712372E-03    3.41334642E-02    3.74060888E-02    3.43924177E-01   -1.73254257E+01    2.68522361E+00    2.72833203E+00   
                   7.50000000E+01    1.50000000E+01   -7.51778778E-04    2.05068171E-02   -2.36852364E-02    2.70194104E-01   -2.18513051E+01    5.71659171E-01    5.96447536E-01   
                   8.00000000E+01    1.50000000E+01   -2.14171388E-03    9.24090516E-03   -5.17573385E-02    1.79462869E-01   -2.85535820E+01   -2.66862321E+00   -2.65743581E+00   
                   8.50000000E+01    1.50000000E+01   -9.81102304E-04    2.22153931E-03   -4.31586463E-02    8.49118052E-02   -4.03882036E+01   -8.51774549E+00   -8.51492322E+00   
                   9.00000000E+01    1.50000000E+01    0.00000000E+00    0.00000000E+00    0.00000000E+00    0.00000000E+00   -1.00000000E+03   -1.00000000E+03   -1.00000000E+03   
                   9.50000000E+01    1.50000000E+01    0.00000000E+00    0.00000000E+00    0.00000000E+00    0.00000000E+00   -1.00000000E+03   -1.00000000E+03   -1.00000000E+03   
                   1.00000000E+02    1.50000000E+01    0.00000000E+00    0.00000000E+00    0.00000000E+00    0.00000000E+00   -1.00000000E+03   -1.00000000E+03   -1.00000000E+03   
                   1.05000000E+02    1.50000000E+01    0.00000000E+00    0.00000000E+00    0.00000000E+00    0.00000000E+00   -1.00000000E+03   -1.00000000E+03   -1.00000000E+03   
                   1.10000000E+02    1.50000000E+01    0.00000000E+00    0.00000000E+00    0.00000000E+00    0.00000000E+00   -1.00000000E+03   -1.00000000E+03   -1.00000000E+03   
                   1.15000000E+02    1.50000000E+01    0.00000000E+00    0.00000000E+00    0.00000000E+00    0.00000000E+00   -1.00000000E+03   -1.00000000E+03   -1.00000000E+03   
                   1.20000000E+02    1.50000000E+01    0.00000000E+00    0.00000000E+00    0.00000000E+00    0.00000000E+00   -1.00000000E+03   -1.00000000E+03   -1.00000000E+03   
                   1.25000000E+02    1.50000000E+01    0.00000000E+00    0.00000000E+00    0.00000000E+00    0.00000000E+00   -1.00000000E+03   -1.00000000E+03   -1.00000000E+03   
                   1.30000000E+02    1.50000000E+01    0.00000000E+00    0.00000000E+00    0.00000000E+00    0.00000000E+00   -1.00000000E+03   -1.00000000E+03   -1.00000000E+03   
                   1.35000000E+02    1.50000000E+01    0.00000000E+00    0.00000000E+00    0.00000000E+00    0.00000000E+00   -1.00000000E+03   -1.00000000E+03   -1.00000000E+03   
                   1.40000000E+02    1.50000000E+01    0.00000000E+00    0.00000000E+00    0.00000000E+00    0.00000000E+00   -1.00000000E+03   -1.00000000E+03   -1.00000000E+03   
                   1.45000000E+02    1.50000000E+01    0.00000000E+00    0.00000000E+00    0.00000000E+00    0.00000000E+00   -1.00000000E+03   -1.00000000E+03   -1.00000000E+03   
                   1.50000000E+02    1.50000000E+01    0.00000000E+00    0.00000000E+00    0.00000000E+00    0.00000000E+00   -1.00000000E+03   -1.00000000E+03   -1.00000000E+03   
                   1.55000000E+02    1.50000000E+01    0.00000000E+00    0.00000000E+00    0.00000000E+00    0.00000000E+00   -1.00000000E+03   -1.00000000E+03   -1.00000000E+03   
                   1.60000000E+02    1.50000000E+01    0.00000000E+00    0.00000000E+00    0.00000000E+00    0.00000000E+00   -1.00000000E+03   -1.00000000E+03   -1.00000000E+03   
                   1.65000000E+02    1.50000000E+01    0.00000000E+00    0.00000000E+00    0.00000000E+00    0.00000000E+00   -1.00000000E+03   -1.00000000E+03   -1.00000000E+03   
                   1.70000000E+02    1.50000000E+01    0.00000000E+00    0.00000000E+00    0.00000000E+00    0.00000000E+00   -1.00000000E+03   -1.00000000E+03   -1.00000000E+03   
                   1.75000000E+02    1.50000000E+01    0.00000000E+00    0.00000000E+00    0.00000000E+00    0.00000000E+00   -1.00000000E+03   -1.00000000E+03   -1.00000000E+03   
                   1.80000000E+02    1.50000000E+01    0.00000000E+00    0.00000000E+00    0.00000000E+00    0.00000000E+00   -1.00000000E+03   -1.00000000E+03   -1.00000000E+03   
                   0.00000000E+00    2.00000000E+01    1.76698595E-01   -7.25455610E-02    4.85390168E-01   -1.99316336E-01   -2.47392955E+00    6.30344203E+00    6.84387908E+00   
                   5.00000000E+00    2.00000000E+01    1.77386848E-01   -7.03533210E-02    4.88551269E-01   -1.93767116E-01   -2.48221838E+00    6.31757452E+00    6.85539406E+00   
                   1.00000000E+01    2.00000000E+01    1.79197685E-01   -6.37516110E-02    4.97474735E-01   -1.76862142E-01   -2.51088823E+00    6.35722222E+00    6.88713943E+00   
                   1.50000000E+01    2.00000000E+01    1.81381198E-01   -5.27190184E-02    5.10463030E-01   -1.47949823E-01   -2.57104522E+00    6.41449194E+00    6.93108093E+00   
                   2.00000000E+01    2.00000000E+01    1.82740413E-01   -3.73867941E-02    5.24657909E-01   -1.06334895E-01   -2.68033020E+00    6.47725013E+00    6.97488085E+00   
                   2.50000000E+01    2.00000000E+01    1.81750431E-01   -1.82476273E-02    5.36097392E-01   -5.18203856E-02   -2.86203621E+00    6.53016114E+00    7.00299483E+00   
                   3.00000000E+01    2.00000000E+01    1.76781982E-01    3.63888683E-03    5.39965083E-01    1.46420543E-02   -3.14450333E+00    6.55540273E+00    6.99748404E+00   
                   3.50000000E+01    2.00000000E+01    1.66438064E-01    2.65296308E-02    5.31129295E-01    9.03337224E-02   -3.56108626E+00    6.53274655E+00    6.93822643E+00   
                   4.00000000E+01    2.00000000E+01    1.49962056E-01    4.80594876E-02    5.05002319E-01    1.70374484E-01   -4.15087825E+00    6.43891837E+00    6.80241715E+00   
                   4.50000000E+01    2.00000000E+01    1.27615996E-01    6.55395672E-02    4.58636445E-01    2.47760257E-01   -4.96037980E+00    6.24631333E+00    6.56339030E+00   
                   5.00000000E+01    2.00000000E+01    1.00886337E-01    7.64797594E-02    3.91840476E-01    3.13988686E-01   -6.04652473E+00    5.92110521E+00    6.18875691E+00   
                   5.50000000E+01    2.00000000E+01    7.23827502E-02    7.92267222E-02    3.07996904E-01    3.60296949E-01   -7.48203518E+00    5.42046348E+00    5.63755100E+00   
                   6.00000000E+01    2.00000000E+01    4.53706618E-02    7.35234050E-02    2.14241582E-01    3.79342114E-01   -9.36527734E+00    4.68785662E+00    4.85537713E+00   
                   6.50000000E+01    2.00000000E+01    2.30072733E-02    6.07696517E-02    1.20772986E-01    3.66957290E-01   -1.18396274E+01    3.64385897E+00    3.76502016E+00   
                   7.00000000E+01    2.00000000E+01    7.48668157E-03    4.38276056E-02    3.92827491E-02    3.23496585E-01   -1.51352354E+01    2.16586299E+00    2.24596862E+00   